

     ************************************************************************
     *************** Dalton - An Electronic Structure Program ***************
     ************************************************************************

    This is output from DALTON (Release Dalton2013 patch 0)
   ----------------------------------------------------------------------------
    NOTE:
     
    Dalton is an experimental code for the evaluation of molecular
    properties using (MC)SCF, DFT, CI, and CC wave functions.
    The authors accept no responsibility for the performance of
    the code or for the correctness of the results.
     
    The code (in whole or part) is provided under a licence and
    is not to be reproduced for further distribution without
    the written permission of the authors or their representatives.
     
    See the home page "http://daltonprogram.org" for further information.
     
    If results obtained with this code are published,
    the appropriate citations would be both of:
     
       K. Aidas, C. Angeli, K. L. Bak, V. Bakken, R. Bast,
       L. Boman, O. Christiansen, R. Cimiraglia, S. Coriani,
       P. Dahle, E. K. Dalskov, U. Ekstroem, T. Enevoldsen,
       J. J. Eriksen, P. Ettenhuber, B. Fernandez, L. Ferrighi,
       H. Fliegl, L. Frediani, K. Hald, A. Halkier, C. Haettig,
       H. Heiberg, T. Helgaker, A. C. Hennum, H. Hettema,
       E. Hjertenaes, S. Hoest, I.-M. Hoeyvik, M. F. Iozzi,
       B. Jansik, H. J. Aa. Jensen, D. Jonsson, P. Joergensen,
       J. Kauczor, S. Kirpekar, T. Kjaergaard, W. Klopper,
       S. Knecht, R. Kobayashi, H. Koch, J. Kongsted, A. Krapp,
       K. Kristensen, A. Ligabue, O. B. Lutnaes, J. I. Melo,
       K. V. Mikkelsen, R. H. Myhre, C. Neiss, C. B. Nielsen,
       P. Norman, J. Olsen, J. M. H. Olsen, A. Osted,
       M. J. Packer, F. Pawlowski, T. B. Pedersen, P. F. Provasi,
       S. Reine, Z. Rinkevicius, T. A. Ruden, K. Ruud, V. Rybkin,
       P. Salek, C. C. M. Samson, A. Sanchez de Meras, T. Saue,
       S. P. A. Sauer, B. Schimmelpfennig, K. Sneskov,
       A. H. Steindal, K. O. Sylvester-Hvid, P. R. Taylor,
       A. M. Teale, E. I. Tellgren, D. P. Tew, A. J. Thorvaldsen,
       L. Thoegersen, O. Vahtras, M. A. Watson, D. J. D. Wilson,
       M. Ziolkowski and H. Agren.
       The Dalton quantum chemistry program system.
       WIREs Comput. Mol. Sci. 2013. doi: 10.1002/wcms.1172
    
    and
    
       Dalton, a Molecular Electronic Structure Program,
       Release DALTON2013.0 (2013), see http://daltonprogram.org
   ----------------------------------------------------------------------------

    Authors in alphabetical order (major contribution(s) in parenthesis):

  Kestutis Aidas,           Vilnius University,           Lithuania   (QM/MM)
  Celestino Angeli,         University of Ferrara,        Italy       (NEVPT2)
  Keld L. Bak,              UNI-C,                        Denmark     (AOSOPPA, non-adiabatic coupling, magnetic properties)
  Vebjoern Bakken,          University of Oslo,           Norway      (DALTON; geometry optimizer, symmetry detection)
  Radovan Bast,             KTH Stockholm                 Sweden      (DALTON installation and execution frameworks)
  Linus Boman,              NTNU,                         Norway      (Cholesky decomposition and subsystems)
  Ove Christiansen,         Aarhus University,            Denmark     (CC module)
  Renzo Cimiraglia,         University of Ferrara,        Italy       (NEVPT2)
  Sonia Coriani,            University of Trieste,        Italy       (CC module, MCD in RESPONS)
  Paal Dahle,               University of Oslo,           Norway      (Parallelization)
  Erik K. Dalskov,          UNI-C,                        Denmark     (SOPPA)
  Thomas Enevoldsen,        Univ. of Southern Denmark,    Denmark     (SOPPA)
  Janus J. Eriksen,         Aarhus University,            Denmark     (PE-MP2/SOPPA, TDA)
  Berta Fernandez,          U. of Santiago de Compostela, Spain       (doublet spin, ESR in RESPONS)
  Lara Ferrighi,            Aarhus University,            Denmark     (PCM Cubic response)
  Heike Fliegl,             University of Oslo,           Norway      (CCSD(R12))
  Luca Frediani,            UiT The Arctic U. of Norway,  Norway      (PCM)
  Bin Gao,                  UiT The Arctic U. of Norway,  Norway      (Gen1Int library)
  Christof Haettig,         Ruhr-University Bochum,       Germany     (CC module)
  Kasper Hald,              Aarhus University,            Denmark     (CC module)
  Asger Halkier,            Aarhus University,            Denmark     (CC module)
  Hanne Heiberg,            University of Oslo,           Norway      (geometry analysis, selected one-electron integrals)
  Trygve Helgaker,          University of Oslo,           Norway      (DALTON; ABACUS, ERI, DFT modules, London, and much more)
  Alf Christian Hennum,     University of Oslo,           Norway      (Parity violation)
  Hinne Hettema,            University of Auckland,       New Zealand (quadratic response in RESPONS; SIRIUS supersymmetry)
  Eirik Hjertenaes,         NTNU,                         Norway      (Cholesky decomposition)
  Maria Francesca Iozzi,    University of Oslo,           Norway      (RPA)
  Brano Jansik              Technical Univ. of Ostrava    Czech Rep.  (DFT cubic response)
  Hans Joergen Aa. Jensen,  Univ. of Southern Denmark,    Denmark     (DALTON; SIRIUS, RESPONS, ABACUS modules, London, and much more)
  Dan Jonsson,              UiT The Arctic U. of Norway,  Norway      (cubic response in RESPONS module)
  Poul Joergensen,          Aarhus University,            Denmark     (RESPONS, ABACUS, and CC modules)
  Joanna Kauczor,           Linkoeping University,        Sweden      (Complex polarization propagator (CPP) module)
  Sheela Kirpekar,          Univ. of Southern Denmark,    Denmark     (Mass-velocity & Darwin integrals)
  Wim Klopper,              KIT Karlsruhe,                Germany     (R12 code in CC, SIRIUS, and ABACUS modules)
  Stefan Knecht,            ETH Zurich,                   Switzerland (Parallel CI and MCSCF)
  Rika Kobayashi,           Australian National Univ.,    Australia   (DIIS in CC, London in MCSCF)
  Henrik Koch,              NTNU,                         Norway      (CC module, Cholesky decomposition)
  Jacob Kongsted,           Univ. of Southern Denmark,    Denmark     (Polarizable embedding, QM/MM)
  Andrea Ligabue,           University of Modena,         Italy       (CTOCD, AOSOPPA)
  Ola B. Lutnaes,           University of Oslo,           Norway      (DFT Hessian)
  Juan I. Melo,             University of Buenos Aires,   Argentina   (LRESC, Relativistic Effects on NMR Shieldings)
  Kurt V. Mikkelsen,        University of Copenhagen,     Denmark     (MC-SCRF and QM/MM)
  Rolf H. Myhre,            NTNU,                         Norway      (Cholesky, subsystems and ECC2)
  Christian Neiss,          Univ. Erlangen-Nuernberg,     Germany     (CCSD(R12))
  Christian B. Nielsen,     University of Copenhagen,     Denmark     (QM/MM)
  Patrick Norman,           Linkoeping University,        Sweden      (Cubic response and complex response in RESPONS)
  Jeppe Olsen,              Aarhus University,            Denmark     (SIRIUS CI/density modules)
  Jogvan Magnus H. Olsen,   Univ. of Southern Denmark,    Denmark     (Polarizable embedding, PE library, QM/MM)
  Anders Osted,             Copenhagen University,        Denmark     (QM/MM)
  Martin J. Packer,         University of Sheffield,      UK          (SOPPA)
  Filip Pawlowski,          Kazimierz Wielki University   Poland      (CC3)
  Thomas B. Pedersen,       University of Oslo,           Norway      (Cholesky decomposition)
  Patricio F. Provasi,      University of Northeastern,   Argentina   (Analysis of coupling constants in localized orbitals)
  Zilvinas Rinkevicius,     KTH Stockholm,                Sweden      (open-shell DFT, ESR)
  Elias Rudberg,            KTH Stockholm,                Sweden      (DFT grid and basis info)
  Torgeir A. Ruden,         University of Oslo,           Norway      (Numerical derivatives in ABACUS)
  Kenneth Ruud,             UiT The Arctic U. of Norway,  Norway      (DALTON; ABACUS magnetic properties and  much more)
  Pawel Salek,              KTH Stockholm,                Sweden      (DALTON; DFT code)
  Claire C. M. Samson       University of Karlsruhe       Germany     (Boys localization, r12 integrals in ERI)
  Alfredo Sanchez de Meras, University of Valencia,       Spain       (CC module, Cholesky decomposition)
  Trond Saue,               Paul Sabatier University,     France      (direct Fock matrix construction)
  Stephan P. A. Sauer,      University of Copenhagen,     Denmark     (SOPPA(CCSD), SOPPA prop., AOSOPPA, vibrational g-factors)
  Bernd Schimmelpfennig,    Forschungszentrum Karlsruhe,  Germany     (AMFI module)
  Kristian Sneskov,         Aarhus University,            Denmark     (QM/MM, PE-CC)
  Arnfinn H. Steindal,      UiT The Arctic U. of Norway,  Norway      (parallel QM/MM)
  K. O. Sylvester-Hvid,     University of Copenhagen,     Denmark     (MC-SCRF)
  Peter R. Taylor,          VLSCI/Univ. of Melbourne,     Australia   (Symmetry handling ABACUS, integral transformation)
  Andrew M. Teale,          University of Nottingham,     England     (DFT-AC, DFT-D)
  David P. Tew,             University of Bristol,        England     (CCSD(R12))
  Olav Vahtras,             KTH Stockholm,                Sweden      (triplet response, spin-orbit, ESR, TDDFT, open-shell DFT)
  David J. Wilson,          La Trobe University,          Australia   (DFT Hessian and DFT magnetizabilities)
  Hans Agren,               KTH Stockholm,                Sweden      (SIRIUS module, RESPONS, MC-SCRF solvation model)
 --------------------------------------------------------------------------------

     Date and time (Linux)  : Sun Sep  8 20:42:20 2013
     Host name              : lpqlx131.ups-tlse.fr                    

 * Work memory size             :    64000000 =  488.28 megabytes.

 * Directories for basis set searches:
   1) /home/bast/DALTON-2013.0-Source/build/test_cc_fop_prop3
   2) /home/bast/DALTON-2013.0-Source/build/basis


Compilation information
-----------------------

 Who compiled             | bast
 Host                     | lpqlx131.ups-tlse.fr
 System                   | Linux-3.8.5-201.fc18.x86_64
 CMake generator          | Unix Makefiles
 Processor                | x86_64
 64-bit integers          | OFF
 MPI                      | OFF
 Fortran compiler         | /usr/bin/gfortran
 Fortran compiler version | GNU Fortran (GCC) 4.7.2 20121109 (Red Hat 4.7.2-8)
 C compiler               | /usr/bin/gcc
 C compiler version       | gcc (GCC) 4.7.2 20121109 (Red Hat 4.7.2-8)
 C++ compiler             | /usr/bin/g++
 C++ compiler version     | g++ (GCC) 4.7.2 20121109 (Red Hat 4.7.2-8)
 Static linking           | OFF
 Last Git revision        | f34203295a86316e27f9e7b44f9b6769c4a046c0
 Configuration time       | 2013-09-08 20:31:27.952056


   Content of the .dal input file
 ----------------------------------

**DALTON INPUT                                    
.RUN WAVE FUNCTIONS                               
**INTEGRAL                                        
.DIPLEN                                           
.THETA                                            
.EFGCAR                                           
.SECMOM                                           
.DARWIN                                           
.MASSVELO                                         
**WAVE FUNCTION                                   
.CC                                               
*SCF INP                                          
.THRESH                                           
 1.0D-10                                          
.DOUBLY OCCUPIED                                  
 3 1 1 0 2 0 0 0                                  
*CC INP                                           
.CCS                                              
.MP2                                              
.CCSD                                             
.PRINT                                            
 6                                                
.THRENR                                           
1.0D-10                                           
.NSYM                                             
8                                                 
.FROIMP                                           
1 0 0 0 1 0 0 0                                   
0 0 0 0 0 0 0 0                                   
.THRLEQ                                           
1.0D-07                                           
*CCFOP                                            
.ALLONE                                           
**END OF DALTON INPUT                             


   Content of the .mol file
 ----------------------------

BASIS                                                                          
aug-cc-pVDZ                                                                    
first order property calculation on N2                                         
small test-basis                                                               
    1    3  X  Y  Z   1.00D-15                                                 
        7.0   1    3    1    1    1                                            
N     0.0000000000000000  0.0000000000000000 1.03715750000000000       *       


       *******************************************************************
       *********** Output from DALTON general input processing ***********
       *******************************************************************

 --------------------------------------------------------------------------------
   Overall default print level:    0
   Print level for DALTON.STAT:    1

    HERMIT 1- and 2-electron integral sections will be executed
    "Old" integral transformation used (limited to max 255 basis functions)
    Wave function sections will be executed (SIRIUS module)
 --------------------------------------------------------------------------------


   ****************************************************************************
   *************** Output of molecule and basis set information ***************
   ****************************************************************************


    The two title cards from your ".mol" input:
    ------------------------------------------------------------------------
 1: first order property calculation on N2                                  
 2: small test-basis                                                        
    ------------------------------------------------------------------------

  Atomic type no.    1
  --------------------
  Nuclear charge:   7.00000
  Number of symmetry independent centers:    1
  Number of basis sets to read;    2
  Basis set file used for this atomic type with Z =   7 :
     "/home/bast/DALTON-2013.0-Source/build/basis/aug-cc-pVDZ"


                         SYMGRP: Point group information
                         -------------------------------

Point group: D2h

   * The point group was generated by:

      Reflection in the yz-plane
      Reflection in the xz-plane
      Reflection in the xy-plane

   * Group multiplication table

        |  E   C2z  C2y  C2x   i   Oxy  Oxz  Oyz
   -----+----------------------------------------
     E  |  E   C2z  C2y  C2x   i   Oxy  Oxz  Oyz
    C2z | C2z   E   C2x  C2y  Oxy   i   Oyz  Oxz
    C2y | C2y  C2x   E   C2z  Oxz  Oyz   i   Oxy
    C2x | C2x  C2y  C2z   E   Oyz  Oxz  Oxy   i 
     i  |  i   Oxy  Oxz  Oyz   E   C2z  C2y  C2x
    Oxy | Oxy   i   Oyz  Oxz  C2z   E   C2x  C2y
    Oxz | Oxz  Oyz   i   Oxy  C2y  C2x   E   C2z
    Oyz | Oyz  Oxz  Oxy   i   C2x  C2y  C2z   E 

   * Character table

        |  E   C2z  C2y  C2x   i   Oxy  Oxz  Oyz
   -----+----------------------------------------
    Ag  |   1    1    1    1    1    1    1    1
    B3u |   1   -1   -1    1   -1    1    1   -1
    B2u |   1   -1    1   -1   -1    1   -1    1
    B1g |   1    1   -1   -1    1    1   -1   -1
    B1u |   1    1   -1   -1   -1   -1    1    1
    B2g |   1   -1    1   -1    1   -1    1   -1
    B3g |   1   -1   -1    1    1   -1   -1    1
    Au  |   1    1    1    1   -1   -1   -1   -1

   * Direct product table

        | Ag   B3u  B2u  B1g  B1u  B2g  B3g  Au 
   -----+----------------------------------------
    Ag  | Ag   B3u  B2u  B1g  B1u  B2g  B3g  Au 
    B3u | B3u  Ag   B1g  B2u  B2g  B1u  Au   B3g
    B2u | B2u  B1g  Ag   B3u  B3g  Au   B1u  B2g
    B1g | B1g  B2u  B3u  Ag   Au   B3g  B2g  B1u
    B1u | B1u  B2g  B3g  Au   Ag   B3u  B2u  B1g
    B2g | B2g  B1u  Au   B3g  B3u  Ag   B1g  B2u
    B3g | B3g  Au   B1u  B2g  B2u  B1g  Ag   B3u
    Au  | Au   B3g  B2g  B1u  B1g  B2u  B3u  Ag 


                                 Isotopic Masses
                                 ---------------

                           N   _1     14.003074
                           N   _2     14.003074

                       Total mass:    28.006148 amu
                       Natural abundance:  99.261 %

 Center-of-mass coordinates (a.u.):    0.000000    0.000000    0.000000


  Atoms and basis sets
  --------------------

  Number of atom types :    1
  Total number of atoms:    2

  Basis set used is "aug-cc-pVDZ" from the basis set library.

  label    atoms   charge   prim   cont     basis
  ----------------------------------------------------------------------
  N           2    7.0000    35    23      [10s5p2d|4s3p2d]                                   
  ----------------------------------------------------------------------
  total:      2   14.0000    70    46
  ----------------------------------------------------------------------
  Spherical harmonic basis used.

  Threshold for neglecting AO integrals:  1.00D-15


  Cartesian Coordinates (a.u.)
  ----------------------------

  Total number of coordinates:    6
  N   / 1 :     1  x   0.0000000000    2  y   0.0000000000    3  z   1.0371575000
  N   / 2 :     4  x   0.0000000000    5  y   0.0000000000    6  z  -1.0371575000


  Symmetry Coordinates
  --------------------

  Number of coordinates in each symmetry:     1    1    1    0    1    1    1    0

  Symmetry  Ag  ( 1)

    1   N     z    [  3  -    6 ]/2

  Symmetry  B3u ( 2)

    2   N     x    [  1  +    4 ]/2

  Symmetry  B2u ( 3)

    3   N     y    [  2  +    5 ]/2

  Symmetry  B1u ( 5)

    4   N     z    [  3  +    6 ]/2

  Symmetry  B2g ( 6)

    5   N     x    [  1  -    4 ]/2

  Symmetry  B3g ( 7)

    6   N     y    [  2  -    5 ]/2


   Interatomic separations (in Angstrom):
   --------------------------------------

            N   _1      N   _2
            ------      ------
 N   _1:    0.000000
 N   _2:    1.097680    0.000000


  Max    interatomic separation is    1.0977 Angstrom (    2.0743 Bohr)
  between atoms    2 and    1, "N   _2" and "N   _1".

  Min YX interatomic separation is    1.0977 Angstrom (    2.0743 Bohr)


  Bond distances (Angstrom):
  --------------------------

                  atom 1     atom 2       distance
                  ------     ------       --------
  bond distance:  N   _2     N   _1       1.097680




 Principal moments of inertia (u*A**2) and principal axes
 --------------------------------------------------------

   IA       0.000000          0.000000    0.000000    1.000000
   IB       8.436165          0.000000    1.000000    0.000000
   IC       8.436165          1.000000    0.000000    0.000000


 Rotational constants
 --------------------

 The molecule is linear.

               B =        59906.25 MHz     (    1.998257 cm-1)


@  Nuclear repulsion energy :   23.622256021867 Hartree


  Symmetry Orbitals
  -----------------

  Number of orbitals in each symmetry:          11    5    5    2   11    5    5    2


  Symmetry  Ag ( 1)

    1     N        1s         1 +    2
    2     N        1s         3 +    4
    3     N        1s         5 +    6
    4     N        1s         7 +    8
    5     N        2pz       13 -   14
    6     N        2pz       19 -   20
    7     N        2pz       25 -   26
    8     N        3d0       31 +   32
    9     N        3d2+      35 +   36
   10     N        3d0       41 +   42
   11     N        3d2+      45 +   46


  Symmetry  B3u( 2)

   12     N        2px        9 +   10
   13     N        2px       15 +   16
   14     N        2px       21 +   22
   15     N        3d1+      33 -   34
   16     N        3d1+      43 -   44


  Symmetry  B2u( 3)

   17     N        2py       11 +   12
   18     N        2py       17 +   18
   19     N        2py       23 +   24
   20     N        3d1-      29 -   30
   21     N        3d1-      39 -   40


  Symmetry  B1g( 4)

   22     N        3d2-      27 +   28
   23     N        3d2-      37 +   38


  Symmetry  B1u( 5)

   24     N        1s         1 -    2
   25     N        1s         3 -    4
   26     N        1s         5 -    6
   27     N        1s         7 -    8
   28     N        2pz       13 +   14
   29     N        2pz       19 +   20
   30     N        2pz       25 +   26
   31     N        3d0       31 -   32
   32     N        3d2+      35 -   36
   33     N        3d0       41 -   42
   34     N        3d2+      45 -   46


  Symmetry  B2g( 6)

   35     N        2px        9 -   10
   36     N        2px       15 -   16
   37     N        2px       21 -   22
   38     N        3d1+      33 +   34
   39     N        3d1+      43 +   44


  Symmetry  B3g( 7)

   40     N        2py       11 -   12
   41     N        2py       17 -   18
   42     N        2py       23 -   24
   43     N        3d1-      29 +   30
   44     N        3d1-      39 +   40


  Symmetry  Au ( 8)

   45     N        3d2-      27 -   28
   46     N        3d2-      37 -   38

  Symmetries of electric field:  B3u(2)  B2u(3)  B1u(5)

  Symmetries of magnetic field:  B3g(7)  B2g(6)  B1g(4)


                     .---------------------------------------.
                     | Starting in Integral Section (HERMIT) |
                     `---------------------------------------'



    *************************************************************************
    ****************** Output from HERMIT input processing ******************
    *************************************************************************


 Default print level:        1

 * Nuclear model: Point charge

 Calculation of one- and two-electron Hamiltonian integrals.

 The following one-electron property integrals are calculated as requested:
          - overlap integrals
          - dipole length integrals
          - traceless quadrupole moment integrals
          - second moment integrals
          - mass velocity integrals
          - 1-electron Darwin integrals
          - Cartesien electric field gradient integrals

 Center of mass  (bohr):      0.000000000000      0.000000000000      0.000000000000
 Operator center (bohr):      0.000000000000      0.000000000000      0.000000000000
 Gauge origin    (bohr):      0.000000000000      0.000000000000      0.000000000000
 Dipole origin   (bohr):      0.000000000000      0.000000000000      0.000000000000


     ************************************************************************
     ************************** Output from HERINT **************************
     ************************************************************************


 Threshold for neglecting two-electron integrals:  1.00D-15
 Number of two-electron integrals written:       69839 ( 11.9% )
 Megabytes written:                              0.804

 >>>> Total CPU  time used in HERMIT:   0.08 seconds
 >>>> Total wall time used in HERMIT:   0.08 seconds


                        .----------------------------------.
                        | End of Integral Section (HERMIT) |
                        `----------------------------------'



                   .--------------------------------------------.
                   | Starting in Wave Function Section (SIRIUS) |
                   `--------------------------------------------'


 *** Output from Huckel module :

     Using EWMO model:          F
     Using EHT  model:          T
     Number of Huckel orbitals each symmetry:    3    1    1    0    3    1    1    0

 Huckel EHT eigenvalues for symmetry :  1
          -15.703205      -1.363954      -0.476808

 Huckel EHT eigenvalues for symmetry :  2
           -0.648566

 Huckel EHT eigenvalues for symmetry :  3
           -0.648566

 Huckel EHT eigenvalues for symmetry :  5
          -15.694743      -0.814285      -0.224605

 Huckel EHT eigenvalues for symmetry :  6
           -0.368834

 Huckel EHT eigenvalues for symmetry :  7
           -0.368834

 **********************************************************************
 *SIRIUS* a direct, restricted step, second order MCSCF program       *
 **********************************************************************

 
     Date and time (Linux)  : Sun Sep  8 20:42:20 2013
     Host name              : lpqlx131.ups-tlse.fr                    

 Title lines from ".mol" input file:
     first order property calculation on N2                                  
     small test-basis                                                        

 Print level on unit LUPRI =   2 is   0
 Print level on unit LUW4  =   2 is   5

@    (Integral direct) CC calculation.

@    This is a combination run starting with
@              a restricted, closed shell Hartree-Fock calculation


 Initial molecular orbitals are obtained according to
 ".MOSTART EHT   " input option

     Wave function specification
     ============================

     For the specification of the Coupled Cluster: see later.

@    For the wave function of type :      >>> CC <<<
@    Number of closed shell electrons          14
@    Number of electrons in active shells       0
@    Total charge of the molecule               0

@    Spin multiplicity and 2 M_S                1         0
     Total number of symmetries                 8
@    Reference state symmetry                   1

     Orbital specifications
     ======================
     Abelian symmetry species          All |    1    2    3    4    5    6    7    8
                                       --- |  ---  ---  ---  ---  ---  ---  ---  ---
@    Occupied SCF orbitals               7 |    3    1    1    0    2    0    0    0
     Secondary orbitals                 39 |    8    4    4    2    9    5    5    2
     Total number of orbitals           46 |   11    5    5    2   11    5    5    2
     Number of basis functions          46 |   11    5    5    2   11    5    5    2

     Optimization information
     ========================
@    Number of configurations                 1
@    Number of orbital rotations             50
     ------------------------------------------
@    Total number of variables               51

     Maximum number of Fock   iterations      0
     Maximum number of DIIS   iterations     60
     Maximum number of QC-SCF iterations     60
     Threshold for SCF convergence     1.00D-10


 Changes of defaults for CC:
 ---------------------------


 -Implicit frozen core calculation
 -Dipole moment calculated
 -Traceless quadrupole moment calculated
 -Electric field gradient calculated
 -Relativistic corrections to energy calculated
 -Electronic second moment of charge calculated
  


 >>>>> DIIS optimization of Hartree-Fock <<<<<

 C1-DIIS algorithm; max error vectors =   10

 Iter      Total energy        Error norm    Delta(E)  DIIS dim.
 -----------------------------------------------------------------------------
     (Precalculated two-electron integrals are transformed to P-supermatrix elements.
      Threshold for discarding integrals :  1.00D-15 )
@  1    -108.637286955        2.68289D+00   -1.09D+02    1
      Virial theorem: -V/T =      2.010389
@      MULPOP N   _1  0.00; N   _2  0.00; 
 -----------------------------------------------------------------------------
@  2    -108.944335552        5.39564D-01   -3.07D-01    2
      Virial theorem: -V/T =      1.996162
@      MULPOP N   _1  0.00; N   _2  0.00; 
 -----------------------------------------------------------------------------
@  3    -108.959910065        8.99377D-02   -1.56D-02    3
      Virial theorem: -V/T =      2.003423
@      MULPOP N   _1  0.00; N   _2  0.00; 
 -----------------------------------------------------------------------------
@  4    -108.960608518        1.84213D-02   -6.98D-04    4
      Virial theorem: -V/T =      2.002681
@      MULPOP N   _1 -0.00; N   _2 -0.00; 
 -----------------------------------------------------------------------------
@  5    -108.960649180        2.36509D-03   -4.07D-05    5
      Virial theorem: -V/T =      2.002785
@      MULPOP N   _1  0.00; N   _2  0.00; 
 -----------------------------------------------------------------------------
@  6    -108.960649956        1.98207D-04   -7.76D-07    6
      Virial theorem: -V/T =      2.002779
@      MULPOP N   _1  0.00; N   _2  0.00; 
 -----------------------------------------------------------------------------
@  7    -108.960649960        2.06253D-05   -4.03D-09    7
      Virial theorem: -V/T =      2.002781
@      MULPOP N   _1 -0.00; N   _2 -0.00; 
 -----------------------------------------------------------------------------
@  8    -108.960649961        2.92613D-06   -5.34D-11    8
      Virial theorem: -V/T =      2.002781
@      MULPOP N   _1 -0.00; N   _2 -0.00; 
 -----------------------------------------------------------------------------
@  9    -108.960649961        2.24516D-07   -1.22D-12    9
      Virial theorem: -V/T =      2.002781
@      MULPOP N   _1 -0.00; N   _2 -0.00; 
 -----------------------------------------------------------------------------
@ 10    -108.960649961        2.67988D-08   -2.84D-14   10
      Virial theorem: -V/T =      2.002781
@      MULPOP N   _1 -0.00; N   _2 -0.00; 
 -----------------------------------------------------------------------------
@ 11    -108.960649961        1.94798D-09    2.84D-14   10
      Virial theorem: -V/T =      2.002781
@      MULPOP N   _1 -0.00; N   _2 -0.00; 
 -----------------------------------------------------------------------------
@ 12    -108.960649961        1.65367D-10    0.00D+00   10
      Virial theorem: -V/T =      2.002781
@      MULPOP N   _1  0.00; N   _2  0.00; 
 -----------------------------------------------------------------------------
@ 13    -108.960649961        1.72781D-11   -8.53D-14   10

@ *** DIIS converged in  13 iterations !
@     Converged SCF energy, gradient:   -108.960649960516    1.73D-11
    - total time used in SIRFCK :              0.00 seconds


 *** SCF orbital energy analysis ***

 Only the five lowest virtual orbital energies printed in each symmetry.

 Number of electrons :   14
 Orbital occupations :    3    1    1    0    2    0    0    0

 Sym       Hartree-Fock orbital energies

  1    -15.69844616    -1.47934999    -0.63435586     0.14019209     0.19616989
         0.58608809     0.69049353     1.13523939

  2     -0.61544451     0.15038032     0.80076679     1.08425323     2.22447407


  3     -0.61544451     0.15038032     0.80076679     1.08425323     2.22447407


  4      0.58608809     2.24409936

  5    -15.69502068    -0.78116452     0.10381924     0.32529172     0.71412509
         0.86630218     0.94719739

  6      0.12450046     0.25309917     0.98189018     1.38402462     3.13381770


  7      0.12450046     0.25309917     0.98189018     1.38402462     3.13381770


  8      0.86630218     2.65255667

    E(LUMO) :     0.10381924 au (symmetry 5)
  - E(HOMO) :    -0.61544451 au (symmetry 3)
  ------------------------------------------
    gap     :     0.71926375 au

 >>> Writing SIRIFC interface file <<<

 >>>> CPU and wall time for SCF :       0.011       0.012


                       .-----------------------------------.
                       | >>> Final results from SIRIUS <<< |
                       `-----------------------------------'


@    Spin multiplicity:           1
@    Spatial symmetry:            1
@    Total charge of molecule:    0

@    Final HF energy:            -108.960649960516                 
@    Nuclear repulsion:            23.622256021867
@    Electronic energy:          -132.582905982384

@    Final gradient norm:           0.000000000017

 
     Date and time (Linux)  : Sun Sep  8 20:42:20 2013
     Host name              : lpqlx131.ups-tlse.fr                    

 (Only coefficients >0.0100 are printed.)

 Molecular orbitals for symmetry species  1
 ------------------------------------------

    Orbital         1        2        3        4        5
   1 N   :1s     0.7077  -0.0109  -0.0032  -0.0143  -0.0011
   2 N   :1s     0.0038   0.6585   0.2175   0.0987   0.1188
   3 N   :1s    -0.0018  -0.1803   0.1551   0.4261   0.6254
   4 N   :1s    -0.0000  -0.0048   0.0477  -0.8371  -0.3035
   5 N   :2pz   -0.0025  -0.3209   0.6680   0.1323  -0.0082
   6 N   :2pz    0.0035   0.1096  -0.1056   0.1582   0.1527
   7 N   :2pz    0.0003   0.0074   0.0010  -0.8538   1.5628
   8 N   :3d0    0.0005   0.0287  -0.0244  -0.0038   0.0275
  10 N   :3d0   -0.0019   0.0025  -0.0033  -0.0174  -0.1894

 Molecular orbitals for symmetry species  2
 ------------------------------------------

    Orbital         1        2        3
   1 N   :2px    0.6310  -0.1483  -0.2079
   2 N   :2px   -0.0489  -0.1590   0.7096
   3 N   :2px    0.0127   0.6067  -0.2203
   4 N   :3d1+  -0.0438   0.0168   0.0063
   5 N   :3d1+  -0.0166  -0.0127   0.7743

 Molecular orbitals for symmetry species  3
 ------------------------------------------

    Orbital         1        2        3
   1 N   :2py    0.6310  -0.1483  -0.2079
   2 N   :2py   -0.0489  -0.1590   0.7096
   3 N   :2py    0.0127   0.6067  -0.2203
   4 N   :3d1-  -0.0438   0.0168   0.0063
   5 N   :3d1-  -0.0166  -0.0127   0.7743

 Molecular orbitals for symmetry species  4
 ------------------------------------------

    Orbital         1        2
   1 N   :3d2-   0.0041   0.7818
   2 N   :3d2-  -0.5593  -0.3639

 Molecular orbitals for symmetry species  5
 ------------------------------------------

    Orbital         1        2        3        4
   1 N   :1s     0.7089  -0.0004  -0.0176   0.0800
   2 N   :1s     0.0065   0.6400   0.0436   0.4484
   3 N   :1s    -0.0305   0.2375   1.4177  -4.5233
   4 N   :1s    -0.0098   0.1573  13.9637 -27.5176
   5 N   :2pz   -0.0031   0.3177   0.0344   0.0884
   6 N   :2pz    0.0156  -0.1499  -0.9294   3.3014
   7 N   :2pz    0.0021  -0.0221  -4.0780   6.4890
   8 N   :3d0    0.0012  -0.0113  -0.0068  -0.0325
  10 N   :3d0   -0.0033   0.0239   0.2334  -0.7108

 Molecular orbitals for symmetry species  6
 ------------------------------------------

    Orbital         1        2
   1 N   :2px    0.4504  -0.5041
   2 N   :2px    0.1606  -0.2050
   3 N   :2px    1.3780   1.9010
   4 N   :3d1+   0.0216   0.0044
   5 N   :3d1+  -0.0422  -0.1577

 Molecular orbitals for symmetry species  7
 ------------------------------------------

    Orbital         1        2
   1 N   :2py    0.4504  -0.5041
   2 N   :2py    0.1606  -0.2050
   3 N   :2py    1.3780   1.9010
   4 N   :3d1-   0.0216   0.0044
   5 N   :3d1-  -0.0422  -0.1577

 Molecular orbitals for symmetry species  8
 ------------------------------------------

    Orbital         1        2
   1 N   :3d2-  -0.0401   0.8903
   2 N   :3d2-   1.1592  -0.5831



 >>>> Total CPU  time used in SIRIUS :      0.01 seconds
 >>>> Total wall time used in SIRIUS :      0.01 seconds

 
     Date and time (Linux)  : Sun Sep  8 20:42:20 2013
     Host name              : lpqlx131.ups-tlse.fr                    


                     .---------------------------------------.
                     | End of Wave Function Section (SIRIUS) |
                     `---------------------------------------'



                    .------------------------------------------.
                    | Starting in Coupled Cluster Section (CC) |
                    `------------------------------------------'

  

 *******************************************************************************
 *******************************************************************************
 *                                                                             *
 *                                                                             *
 *                    START OF COUPLED CLUSTER CALCULATION                     *
 *                                                                             *
 *                                                                             *
 *******************************************************************************
 *******************************************************************************


 LWORK =        64000000



 CCR12 ANSATZ =   0

 CCR12 APPROX =   0

   

 *******************************************************************
 *                                                                 *
 *<<<<<<<<<<                                             >>>>>>>>>>*
 *<<<<<<<<<< OUTPUT FROM COUPLED CLUSTER ENERGY PROGRAM  >>>>>>>>>>*
 *<<<<<<<<<<                                             >>>>>>>>>>*
 *                                                                 *
 *******************************************************************


             The Direct Coupled Cluster Energy Program
             -----------------------------------------


          Number of t1 amplitudes                 :        33
          Number of t2 amplitudes                 :      2670
          Total number of amplitudes in ccsd      :      2703



          CCS CALC. - NO WAVEFUNCTION OPTIMIZATION
   

 *******************************************************************
 *                                                                 *
 *<<<<<<<<<<<<< OUTPUT FROM COUPLED CLUSTER RESPONSE  >>>>>>>>>>>>>*
 *                                                                 *
 *<<<<<<<<<<    CALCULATION OF FIRST ORDER PROPERTIES    >>>>>>>>>>*
 *                                                                 *
 *******************************************************************



                         +-------------------------------+
                         ! Coupled Cluster model is: CCS !
                         +-------------------------------+

  


             +--------------------------------------------------------+
             !   Relaxed  CCS    First-order one-electron properties: !
             +--------------------------------------------------------+



                            +-------------------------+
                            !  Electric Dipole Moment !
                            +-------------------------+



                      Nuclear contribution to dipole moments
                      --------------------------------------

                    All dipole components are zero by symmetry




                     Electronic contribution to dipole moment
                     ----------------------------------------

                    All dipole components are zero by symmetry


 Electronic dipole moment (au):   0.000000000       0.000000000       0.000000000    




                          Total Molecular Dipole Moment
                          -----------------------------

                    All dipole components are zero by symmetry




                          +-----------------------------+
                          !  Electric Quadrupole Moment !
                          +-----------------------------+



                       Nuclear contr. to quadrupole moment
                       -----------------------------------

                    X              Y              Z

               Column   1     Column   2     Column   3
       1      -7.52986976     0.00000000     0.00000000
       2       0.00000000    -7.52986976     0.00000000
       3       0.00000000     0.00000000    15.05973952
    ==== End of matrix output ====


                      Electronic contr. to quadrupole moment
                      --------------------------------------

                    X              Y              Z

               Column   1     Column   2     Column   3
       1      -7.97729845     0.00000000     0.00000000
       2       0.00000000    -7.97729845     0.00000000
       3       0.00000000     0.00000000    15.95459690
    ==== End of matrix output ====


                        Total Molecular quadrupole moment
                        ---------------------------------

                    X              Y              Z

               Column   1     Column   2     Column   3
       1       0.44742869     0.00000000     0.00000000
       2       0.00000000     0.44742869     0.00000000
       3       0.00000000     0.00000000    -0.89485738
    ==== End of matrix output ====


                      +-------------------------------------+
                      !  Electronic second moment of charge !
                      +-------------------------------------+

                    X              Y              Z

               Column   1     Column   2     Column   3
       1       7.77046148     0.00000000     0.00000000
       2       0.00000000     7.77046148     0.00000000
       3       0.00000000     0.00000000    23.72505838
    ==== End of matrix output ====

 Alfa**2 Invariant:                        171.313032
 Beta**2 Invariant:                        254.549162

 Isotropic Property:                        13.088660 a.u.
 Property anisotropy invariant:             15.954597 a.u.


                           +---------------------------+
                           !  Electric Field Gradients !
                           +---------------------------+



                                 Isotopic Masses
                                 ---------------

                           N   _1     14.003074
                           N   _2     14.003074

                       Total mass:    28.006148 amu
                       Natural abundance:  99.261 %

 Center-of-mass coordinates (a.u.):    0.000000    0.000000    0.000000


      *********************************************************************
      **************** ABACUS - Nuclear Quadrupole moments ****************
      *********************************************************************


Total non-diagonalized EFG Tensor   N   _1

               Column   1     Column   2     Column   3
       1       0.55905661     0.00000000     0.00000000
       2       0.00000000     0.55905661     0.00000000
       3       0.00000000     0.00000000    -1.11811322
    ==== End of matrix output ====

Total non-diagonalized EFG Tensor   N   _2

               Column   1     Column   2     Column   3
       1       0.55905661     0.00000000     0.00000000
       2       0.00000000     0.55905661     0.00000000
       3       0.00000000     0.00000000    -1.11811322
    ==== End of matrix output ====
 String on input: "N   _1  "
 String on input: "N__1    "
 String on input: "N   _2  "
 String on input: "N__2    "

EFG Principal axis                  N   _1

               Column   1     Column   2     Column   3
       1       1.00000000     0.00000000     0.00000000
       2       0.00000000     1.00000000     0.00000000
       3       0.00000000     0.00000000     1.00000000
    ==== End of matrix output ====

EFG Principal axis                  N   _2

               Column   1     Column   2     Column   3
       1       1.00000000     0.00000000     0.00000000
       2       0.00000000     1.00000000     0.00000000
       3       0.00000000     0.00000000     1.00000000
    ==== End of matrix output ====


                       Nuclear quadrupole moment for N   _1
                       ------------------------------------

          Spin     :  1.0          Quadrupole moment:0.02044000
                            au           MHz        Gauss
 N   _1 14    Vx =       0.559057     2.684970     0.959175
 N   _1 14    Vy =       0.559057     2.684970     0.959175
 N   _1 14    Vz =      -1.118113    -5.369940    -1.918350
                 Asymmetry constant eta:      0.000000
                 Auxiliary value au  1/T  0.195869D-03


                       Nuclear quadrupole moment for N   _2
                       ------------------------------------

          Spin     :  1.0          Quadrupole moment:0.02044000
                            au           MHz        Gauss
 N   _2 14    Vx =       0.559057     2.684970     0.959175
 N   _2 14    Vy =       0.559057     2.684970     0.959175
 N   _2 14    Vz =      -1.118113    -5.369940    -1.918350
                 Asymmetry constant eta:      0.000000
                 Auxiliary value au  1/T  0.195869D-03


           +------------------------------------------------------------+
           !  Pauli relativistic corrections to the ground-state energy !
           +------------------------------------------------------------+

  
         1-elec. Darwin term:      0.230697485
         ------------------- 
  
         Mass-Velocity term:      -0.288759864
         ------------------  
  
         Mass-Velocity + 1-elec. Darwin terms:      -0.058062379
         ------------------------------------ 

 *******************************************************************

 Ground state energy is target 

 Ecorr =                   -108.96064996051634921059

 *******************************************************************


 CCR12 ANSATZ =   0

 CCR12 APPROX =   0

   

 *******************************************************************
 *                                                                 *
 *<<<<<<<<<<                                             >>>>>>>>>>*
 *<<<<<<<<<< OUTPUT FROM COUPLED CLUSTER ENERGY PROGRAM  >>>>>>>>>>*
 *<<<<<<<<<<                                             >>>>>>>>>>*
 *                                                                 *
 *******************************************************************


             The Direct Coupled Cluster Energy Program
             -----------------------------------------


          Number of t1 amplitudes                 :        33
          Number of t2 amplitudes                 :      2670
          Total number of amplitudes in ccsd      :      2703



                        +---------------------------------+
                        ! Largest amplitudes in MP2 guess !
                        +---------------------------------+



          CC_PRAM:Overall Contribution of the Different Components
          --------------------------------------------------------



          Single Excitation Contribution :               0.0000 %

          Double Excitation Contribution :             100.0000 %

          ||T1||/||T2||                  :               0.0000

          Norm of Total Amplitude Vector :               0.2227


 +=============================================================================+
 | symmetry|  orbital index  |   Excitation Numbers             |   Amplitude  |
 |  Index  |   a   b   i   j |      NAI      NBJ |     NAIBJ    |              |
 +=============================================================================+
 +-----------------------------------------------------------------------------+
 | 1 1 1 1 |   5   5   2   2 |       13       13 |           91 |   -0.016680  |
 | 2 2 2 2 |   3   3   1   1 |       19       19 |          190 |   -0.019309  |
 | 3 3 3 3 |   3   3   1   1 |       23       23 |          276 |   -0.019309  |
 | 6 6 5 5 |   1   1   1   1 |       19       19 |          751 |   -0.021461  |
 | 6 6 5 5 |   2   1   1   1 |       20       19 |          770 |    0.018903  |
 | 6 6 5 5 |   2   2   1   1 |       20       20 |          771 |   -0.017383  |
 | 7 7 5 5 |   1   1   1   1 |       19       19 |         1027 |   -0.021461  |
 | 7 7 5 5 |   2   1   1   1 |       20       19 |         1046 |    0.018903  |
 | 7 7 5 5 |   2   2   1   1 |       20       20 |         1047 |   -0.017383  |
 | 5 5 1 1 |   6   6   2   2 |       15       15 |         1338 |   -0.020033  |
 | 6 5 2 1 |   1   6   1   2 |       19       15 |         1404 |    0.018084  |
 | 6 5 2 1 |   2   6   1   2 |       20       15 |         1423 |   -0.018130  |
 | 7 5 3 1 |   1   6   1   2 |       24       15 |         1509 |    0.018084  |
 | 7 5 3 1 |   2   6   1   2 |       25       15 |         1533 |   -0.018130  |
 | 6 6 2 2 |   1   1   1   1 |       19       19 |         1408 |   -0.047864  |
 | 6 6 2 2 |   2   1   1   1 |       20       19 |         1427 |    0.044125  |
 | 6 6 2 2 |   2   2   1   1 |       20       20 |         1428 |   -0.042019  |
 | 6 6 2 2 |   3   2   1   1 |       21       20 |         1448 |    0.017328  |
 | 7 6 3 2 |   1   1   1   1 |       24       19 |         1513 |   -0.038462  |
 | 7 6 3 2 |   2   1   1   1 |       25       19 |         1537 |    0.035408  |
 | 7 6 3 2 |   1   2   1   1 |       24       20 |         1514 |    0.035408  |
 | 7 6 3 2 |   2   2   1   1 |       25       20 |         1538 |   -0.033514  |
 | 7 7 3 3 |   1   1   1   1 |       24       24 |         1518 |   -0.047864  |
 | 7 7 3 3 |   2   1   1   1 |       25       24 |         1542 |    0.044125  |
 | 7 7 3 3 |   2   2   1   1 |       25       25 |         1543 |   -0.042019  |
 | 7 7 3 3 |   3   2   1   1 |       26       25 |         1568 |    0.017328  |
 +=============================================================================+


          Norm of Printed Amplitude Vector :             0.1506

          Printed all single excitations greater than 0.010000

          Printed all double excitations greater than 0.016667
 Iter.  1: Coupled cluster MP2   energy :    -109.2778430425559861
     Conventional correlation energy:    -0.3171930820396369





             +-------------------------------------------------------+
             ! Final results from the Coupled Cluster energy program !
             +-------------------------------------------------------+



            Total SCF   energy:                  -108.9606499605

            Total MP2   energy:                  -109.2778430426

   

 *******************************************************************
 *                                                                 *
 *<<<<<<<<<<<<< OUTPUT FROM COUPLED CLUSTER RESPONSE  >>>>>>>>>>>>>*
 *                                                                 *
 *<<<<<<<<<<    CALCULATION OF FIRST ORDER PROPERTIES    >>>>>>>>>>*
 *                                                                 *
 *******************************************************************



                    +-----------------------------------------+
                    ! Model is second order pert. theory: MP2 !
                    +-----------------------------------------+



 Analysis of the undifferentiated Lagrangian multipliers:
 --------------------------------------------------------


          CC_PRAM:Overall Contribution of the Different Components
          --------------------------------------------------------



          Single Excitation Contribution :               0.0000 %

          Double Excitation Contribution :             100.0000 %

          ||T1||/||T2||                  :               0.0000

          Norm of Total Amplitude Vector :               0.6641


 +=============================================================================+
 | symmetry|  orbital index  |   Excitation Numbers             |   Amplitude  |
 |  Index  |   a   b   i   j |      NAI      NBJ |     NAIBJ    |              |
 +=============================================================================+
 +-----------------------------------------------------------------------------+
 | 6 6 2 2 |   1   1   1   1 |       19       19 |         1408 |   -0.095728  |
 | 6 6 2 2 |   2   1   1   1 |       20       19 |         1427 |    0.088249  |
 | 6 6 2 2 |   2   2   1   1 |       20       20 |         1428 |   -0.084037  |
 | 7 6 3 2 |   1   1   1   1 |       24       19 |         1513 |   -0.144444  |
 | 7 6 3 2 |   2   1   1   1 |       25       19 |         1537 |    0.132913  |
 | 7 6 3 2 |   1   2   1   1 |       24       20 |         1514 |    0.132913  |
 | 7 6 3 2 |   2   2   1   1 |       25       20 |         1538 |   -0.125551  |
 | 7 7 3 3 |   1   1   1   1 |       24       24 |         1518 |   -0.095728  |
 | 7 7 3 3 |   2   1   1   1 |       25       24 |         1542 |    0.088249  |
 | 7 7 3 3 |   2   2   1   1 |       25       25 |         1543 |   -0.084037  |
 +=============================================================================+


          Norm of Printed Amplitude Vector :             0.3464

          Printed all single excitations greater than 0.010000

          Printed all double excitations greater than 0.083333


                   Calculating diagonal blocks of zeta-kappa-0
                   -------------------------------------------



                          +------------------------------+
                          ! Zeta-kappa-0 diagonal blocks !
                          +------------------------------+

  
 Norm of occupied-occupied block:  0.11366736415229090     
 Norm of virtual-virtual block:   9.5906034138595678E-002
 Norm of frozen-core-occupied block:   7.3007911214292062E-004
  
 Diagonal blocks of Zeta-kappa-0 calculated
 Total time used in MP2_ZKDIA:   9.9999457597732544E-004


                 Constructing right-hand-side for MP2-kappa-0(ai)
                 ------------------------------------------------

  
 MP2 Eta-0(kappa) calculation completed
 Total time used in MP2_KANEW:   5.0000026822090149E-003
 CC_FOP> Norm of RHS vector:   6.5102401468857624E-002


                      Solving for orbital relaxation vector
                      -------------------------------------



  THIS IS OUTPUT FROM THE MCSCF AND SOPPA RESPONSE SOLVER
 ---------------------------------------------------------


 Symmetry of singlet property operator     1
 Number of operators for singlet linear response equations:     1
 Number of response frequencies:     1
 Convergence threshold:     1.00D-07

 Integral transformation: Total CPU and WALL times (sec)       0.014       0.015


   SCF energy         :     -108.960649960516349
 -- inactive part     :     -132.582905982383807
 -- nuclear repulsion :       23.622256021867461


 >>>>>>>>>> Symmetry of excitation/property operator    1

 Number of operators for linear response equations:     1
 Number of response frequencies:     1


 Perturbation symmetry.     KSYMOP:       1
 Perturbation spin symmetry.TRPLET:       F
 Orbital variables.         KZWOPT:      50
 Configuration variables.   KZCONF:       0
 Total number of variables. KZVAR :      50


 RSPLLE -- linear response calculation for symmetry  1
 RSPLLE -- operator no.  1 out of  1
 RSPLLE -- frequencies :  0.000000



 <<<  SOLVING SETS OF LINEAR EQUATIONS FOR LINEAR RESPONSE PROPERTIES >>>

 Operator symmetry =  1; triplet =   F


 ** RSPCTL MICROITERATION NUMBER    1

 GP * SOLUTION vector at frequency     0.00000 a.u.
 after    1 linear transformations is      0.04056803
 INERTIA (POS,ZER,NEG) of reduced matrix is    2    0    0
 Determinant of reduced matrix is  6.95 * 10 **  0.0

       No.  Residual tot.,    conf., and orb.    Bnorm      Frequency 
      ----------------------------------------------------------------
         1    7.66618D-02  0.00D+00  7.67D-02  1.22D-01    0.00000D+00

 ** RSPCTL MICROITERATION NUMBER    2

 GP * SOLUTION vector at frequency     0.00000 a.u.
 after    2 linear transformations is      0.04238920
 INERTIA (POS,ZER,NEG) of reduced matrix is    4    0    0
 Determinant of reduced matrix is  3.38 * 10 **  1.0

       No.  Residual tot.,    conf., and orb.    Bnorm      Frequency 
      ----------------------------------------------------------------
         1    1.51207D-02  0.00D+00  1.51D-02  1.35D-01    0.00000D+00

 ** RSPCTL MICROITERATION NUMBER    3

 GP * SOLUTION vector at frequency     0.00000 a.u.
 after    3 linear transformations is      0.04243716
 INERTIA (POS,ZER,NEG) of reduced matrix is    6    0    0
 Determinant of reduced matrix is  2.56 * 10 **  2.0

       No.  Residual tot.,    conf., and orb.    Bnorm      Frequency 
      ----------------------------------------------------------------
         1    2.55273D-03  0.00D+00  2.55D-03  1.37D-01    0.00000D+00

 ** RSPCTL MICROITERATION NUMBER    4

 GP * SOLUTION vector at frequency     0.00000 a.u.
 after    4 linear transformations is      0.04243851
 INERTIA (POS,ZER,NEG) of reduced matrix is    8    0    0
 Determinant of reduced matrix is  2.45 * 10 **  3.0

       No.  Residual tot.,    conf., and orb.    Bnorm      Frequency 
      ----------------------------------------------------------------
         1    4.14211D-04  0.00D+00  4.14D-04  1.37D-01    0.00000D+00

 ** RSPCTL MICROITERATION NUMBER    5

 GP * SOLUTION vector at frequency     0.00000 a.u.
 after    5 linear transformations is      0.04243853
 INERTIA (POS,ZER,NEG) of reduced matrix is   10    0    0
 Determinant of reduced matrix is  4.84 * 10 **  4.0

       No.  Residual tot.,    conf., and orb.    Bnorm      Frequency 
      ----------------------------------------------------------------
         1    5.19548D-05  0.00D+00  5.20D-05  1.37D-01    0.00000D+00

 ** RSPCTL MICROITERATION NUMBER    6

 GP * SOLUTION vector at frequency     0.00000 a.u.
 after    6 linear transformations is      0.04243853
 INERTIA (POS,ZER,NEG) of reduced matrix is   12    0    0
 Determinant of reduced matrix is  1.70 * 10 **  6.0

       No.  Residual tot.,    conf., and orb.    Bnorm      Frequency 
      ----------------------------------------------------------------
         1    3.13786D-06  0.00D+00  3.14D-06  1.37D-01    0.00000D+00

 ** RSPCTL MICROITERATION NUMBER    7

 GP * SOLUTION vector at frequency     0.00000 a.u.
 after    7 linear transformations is      0.04243853
 INERTIA (POS,ZER,NEG) of reduced matrix is   14    0    0
 Determinant of reduced matrix is  2.07 * 10 **  7.0

       No.  Residual tot.,    conf., and orb.    Bnorm      Frequency 
      ----------------------------------------------------------------
         1    3.43497D-07  0.00D+00  3.43D-07  1.37D-01    0.00000D+00

 ** RSPCTL MICROITERATION NUMBER    8

 GP * SOLUTION vector at frequency     0.00000 a.u.
 after    8 linear transformations is      0.04243853
 INERTIA (POS,ZER,NEG) of reduced matrix is   16    0    0
 Determinant of reduced matrix is  4.84 * 10 **  8.0

       No.  Residual tot.,    conf., and orb.    Bnorm      Frequency 
      ----------------------------------------------------------------
         1    3.77807D-08  0.00D+00  3.78D-08  1.37D-01    0.00000D+00

 ** RSPCTL MICROITERATION NUMBER    9

 GP * SOLUTION vector at frequency     0.00000 a.u.
 after    9 linear transformations is      0.04243853
 INERTIA (POS,ZER,NEG) of reduced matrix is   18    0    0
 Determinant of reduced matrix is  1.94 * 10 ** 10.0

       No.  Residual tot.,    conf., and orb.    Bnorm      Frequency 
      ----------------------------------------------------------------
         1    2.82241D-09  0.00D+00  2.82D-09  1.37D-01    0.00000D+00

 *** THE REQUESTED    1 SOLUTION VECTORS CONVERGED

 Convergence of RSP solution vectors, threshold = 1.00D-07
 ---------------------------------------------------------------
 (dimension of paired reduced space:   18)
 RSP solution vector no.    1; norm of residual   2.06D-08

 *** RSPCTL MICROITERATIONS CONVERGED

 EIGENVECTOR NUMBER     1

     Orbital operator symmetry = 1
     (only elements abs greater than   10.00 % of max abs value)

      Index(r,s)      r      s        (r s) operator      (s r) operator
      ----------    -----  -----      --------------      --------------
           9         2(1)   4(1)        0.0052469946       -0.0052469946
          16         2(1)  11(1)       -0.0075224570        0.0075224570
          17         3(1)   4(1)        0.0460319846       -0.0460319846
          18         3(1)   5(1)        0.0224156132       -0.0224156132
          20         3(1)   7(1)        0.0049759216       -0.0049759216
          21         3(1)   8(1)       -0.0114955467        0.0114955467
          24         3(1)  11(1)        0.0066438070       -0.0066438070
          25        12(2)  13(2)        0.0164259246       -0.0164259246
          26        12(2)  14(2)       -0.0078384962        0.0078384962
          27        12(2)  15(2)        0.0402802250       -0.0402802250
          28        12(2)  16(2)       -0.0221297634        0.0221297634
          29        17(3)  18(3)        0.0164259246       -0.0164259246
          30        17(3)  19(3)       -0.0078384962        0.0078384962
          31        17(3)  20(3)        0.0402802250       -0.0402802250
          32        17(3)  21(3)       -0.0221297634        0.0221297634
          42        25(5)  26(5)        0.0103073579       -0.0103073579
          43        25(5)  27(5)        0.0136664183       -0.0136664183
          44        25(5)  28(5)        0.0259538682       -0.0259538682
          46        25(5)  30(5)       -0.0079612210        0.0079612210
          47        25(5)  31(5)       -0.0225341653        0.0225341653

       30 elements with absolute value less than 4.60D-03 not printed.

 The numbers in parenthesis give the orbital symmetry.

     Configuration operator symmetry = 1
     >> NO ELEMENTS <<


 Time used in linear response calculation is      0.00 CPU seconds for symmetry 1

 >>> Total time used in response solver is         0.02 CPU seconds.

   Equations converged to residual less than:  0.000000
  
 Norm of zeta-kappa-0:   4.0869308837820681E-002
 CCFOP: call CC_D1AO to recalc the 1e Density
  


             +--------------------------------------------------------+
             !   Relaxed  MP2    First-order one-electron properties: !
             +--------------------------------------------------------+



                            +-------------------------+
                            !  Electric Dipole Moment !
                            +-------------------------+



                      Nuclear contribution to dipole moments
                      --------------------------------------

                    All dipole components are zero by symmetry




                     Electronic contribution to dipole moment
                     ----------------------------------------

                    All dipole components are zero by symmetry


 Electronic dipole moment (au):   0.000000000       0.000000000       0.000000000    




                          Total Molecular Dipole Moment
                          -----------------------------

                    All dipole components are zero by symmetry




                          +-----------------------------+
                          !  Electric Quadrupole Moment !
                          +-----------------------------+



                       Nuclear contr. to quadrupole moment
                       -----------------------------------

                    X              Y              Z

               Column   1     Column   2     Column   3
       1      -7.52986976     0.00000000     0.00000000
       2       0.00000000    -7.52986976     0.00000000
       3       0.00000000     0.00000000    15.05973952
    ==== End of matrix output ====


                      Electronic contr. to quadrupole moment
                      --------------------------------------

                    X              Y              Z

               Column   1     Column   2     Column   3
       1      -8.11921674     0.00000000     0.00000000
       2       0.00000000    -8.11921674     0.00000000
       3       0.00000000     0.00000000    16.23843348
    ==== End of matrix output ====


                        Total Molecular quadrupole moment
                        ---------------------------------

                    X              Y              Z

               Column   1     Column   2     Column   3
       1       0.58934698     0.00000000     0.00000000
       2       0.00000000     0.58934698     0.00000000
       3       0.00000000     0.00000000    -1.17869396
    ==== End of matrix output ====


                      +-------------------------------------+
                      !  Electronic second moment of charge !
                      +-------------------------------------+

                    X              Y              Z

               Column   1     Column   2     Column   3
       1       7.73718125     0.00000000     0.00000000
       2       0.00000000     7.73718125     0.00000000
       3       0.00000000     0.00000000    23.97561473
    ==== End of matrix output ====

 Alfa**2 Invariant:                        172.922300
 Beta**2 Invariant:                        263.686722

 Isotropic Property:                        13.149992 a.u.
 Property anisotropy invariant:             16.238433 a.u.


                           +---------------------------+
                           !  Electric Field Gradients !
                           +---------------------------+



                                 Isotopic Masses
                                 ---------------

                           N   _1     14.003074
                           N   _2     14.003074

                       Total mass:    28.006148 amu
                       Natural abundance:  99.261 %

 Center-of-mass coordinates (a.u.):    0.000000    0.000000    0.000000


      *********************************************************************
      **************** ABACUS - Nuclear Quadrupole moments ****************
      *********************************************************************


Total non-diagonalized EFG Tensor   N   _1

               Column   1     Column   2     Column   3
       1       0.43698248     0.00000000     0.00000000
       2       0.00000000     0.43698248     0.00000000
       3       0.00000000     0.00000000    -0.87396497
    ==== End of matrix output ====

Total non-diagonalized EFG Tensor   N   _2

               Column   1     Column   2     Column   3
       1       0.43698248     0.00000000     0.00000000
       2       0.00000000     0.43698248     0.00000000
       3       0.00000000     0.00000000    -0.87396497
    ==== End of matrix output ====
 String on input: "N   _1  "
 String on input: "N__1    "
 String on input: "N   _2  "
 String on input: "N__2    "

EFG Principal axis                  N   _1

               Column   1     Column   2     Column   3
       1       1.00000000     0.00000000     0.00000000
       2       0.00000000     1.00000000     0.00000000
       3       0.00000000     0.00000000     1.00000000
    ==== End of matrix output ====

EFG Principal axis                  N   _2

               Column   1     Column   2     Column   3
       1       1.00000000     0.00000000     0.00000000
       2       0.00000000     1.00000000     0.00000000
       3       0.00000000     0.00000000     1.00000000
    ==== End of matrix output ====


                       Nuclear quadrupole moment for N   _1
                       ------------------------------------

          Spin     :  1.0          Quadrupole moment:0.02044000
                            au           MHz        Gauss
 N   _1 14    Vx =       0.436982     2.098687     0.749732
 N   _1 14    Vy =       0.436982     2.098687     0.749732
 N   _1 14    Vz =      -0.873965    -4.197374    -1.499464
                 Asymmetry constant eta:      0.000000
                 Auxiliary value au  1/T  0.119669D-03


                       Nuclear quadrupole moment for N   _2
                       ------------------------------------

          Spin     :  1.0          Quadrupole moment:0.02044000
                            au           MHz        Gauss
 N   _2 14    Vx =       0.436982     2.098687     0.749732
 N   _2 14    Vy =       0.436982     2.098687     0.749732
 N   _2 14    Vz =      -0.873965    -4.197374    -1.499464
                 Asymmetry constant eta:      0.000000
                 Auxiliary value au  1/T  0.119669D-03


           +------------------------------------------------------------+
           !  Pauli relativistic corrections to the ground-state energy !
           +------------------------------------------------------------+

  
         1-elec. Darwin term:      0.230613608
         ------------------- 
  
         Mass-Velocity term:      -0.288752388
         ------------------  
  
         Mass-Velocity + 1-elec. Darwin terms:      -0.058138780
         ------------------------------------ 

 *******************************************************************

 Ground state energy is target 

 Ecorr =                   -109.27784304255598613054

 *******************************************************************

 requested model not yet implemented


 CCR12 ANSATZ =   0

 CCR12 APPROX =   0

   

 *******************************************************************
 *                                                                 *
 *<<<<<<<<<<                                             >>>>>>>>>>*
 *<<<<<<<<<< OUTPUT FROM COUPLED CLUSTER ENERGY PROGRAM  >>>>>>>>>>*
 *<<<<<<<<<<                                             >>>>>>>>>>*
 *                                                                 *
 *******************************************************************


             The Direct Coupled Cluster Energy Program
             -----------------------------------------


          Number of t1 amplitudes                 :        33
          Number of t2 amplitudes                 :      2670
          Total number of amplitudes in ccsd      :      2703

 Iter.  1: Coupled cluster RSTAR energy :    -109.2778430425559861
     Conventional correlation energy:    -0.3171930820396369

       Iteration no.:  1
       -----------------

       Time used in   RHS - TOTAL  :       0.02 seconds
       Norm^2 of t1am   after ccvec:        0.0000000000D+00
       Norm^2 of t2am   after ccvec:        0.4959434426D-01
       Norm^2 of omega1 after ccvec:        0.4066284196D-02
       Norm^2 of omega2 after ccvec:        0.1062753869D-01
 Iter.  1: Coupled cluster CCSD  energy :    -109.2663302365739924
     Conventional correlation energy:    -0.3056802760576431

       Iteration no.:  2
       -----------------

       Time used in   RHS - TOTAL  :       0.02 seconds
       Norm^2 of t1am   after ccvec:        0.1208384704D-02
       Norm^2 of t2am   after ccvec:        0.5020854813D-01
       Norm^2 of omega1 after ccvec:        0.5273141792D-04
       Norm^2 of omega2 after ccvec:        0.1591421533D-02
 Iter.  2: Coupled cluster CCSD  energy :    -109.2775894044732183
     Conventional correlation energy:    -0.3169394439568691

       Iteration no.:  3
       -----------------

       Time used in   RHS - TOTAL  :       0.02 seconds
       Norm^2 of t1am   after ccvec:        0.1231194015D-02
       Norm^2 of t2am   after ccvec:        0.5621517832D-01
       Norm^2 of omega1 after ccvec:        0.2588933151D-04
       Norm^2 of omega2 after ccvec:        0.1866484524D-03
 Iter.  3: Coupled cluster CCSD  energy :    -109.2801924855979934
     Conventional correlation energy:    -0.3195425250816442

       Iteration no.:  4
       -----------------

       Time used in   RHS - TOTAL  :       0.02 seconds
       Norm^2 of t1am   after ccvec:        0.1636727525D-02
       Norm^2 of t2am   after ccvec:        0.5967735072D-01
       Norm^2 of omega1 after ccvec:        0.2920773430D-06
       Norm^2 of omega2 after ccvec:        0.1300327932D-04
 Iter.  4: Coupled cluster CCSD  energy :    -109.2803928104939786
     Conventional correlation energy:    -0.3197428499776294

       Iteration no.:  5
       -----------------

       Time used in   RHS - TOTAL  :       0.02 seconds
       Norm^2 of t1am   after ccvec:        0.1682294438D-02
       Norm^2 of t2am   after ccvec:        0.6032859665D-01
       Norm^2 of omega1 after ccvec:        0.3821003885D-07
       Norm^2 of omega2 after ccvec:        0.6280336722D-06
 Iter.  5: Coupled cluster CCSD  energy :    -109.2804547515028730
     Conventional correlation energy:    -0.3198047909865238

       Iteration no.:  6
       -----------------

       Time used in   RHS - TOTAL  :       0.02 seconds
       Norm^2 of t1am   after ccvec:        0.1691470257D-02
       Norm^2 of t2am   after ccvec:        0.6046599975D-01
       Norm^2 of omega1 after ccvec:        0.2246932435D-08
       Norm^2 of omega2 after ccvec:        0.4228971990D-07
 Iter.  6: Coupled cluster CCSD  energy :    -109.2804563075569462
     Conventional correlation energy:    -0.3198063470405970

       Iteration no.:  7
       -----------------

       Time used in   RHS - TOTAL  :       0.02 seconds
       Norm^2 of t1am   after ccvec:        0.1689615729D-02
       Norm^2 of t2am   after ccvec:        0.6046810690D-01
       Norm^2 of omega1 after ccvec:        0.1316263823D-09
       Norm^2 of omega2 after ccvec:        0.2128133170D-08
 Iter.  7: Coupled cluster CCSD  energy :    -109.2804601164130105
     Conventional correlation energy:    -0.3198101558966613

       Iteration no.:  8
       -----------------

       Time used in   RHS - TOTAL  :       0.02 seconds
       Norm^2 of t1am   after ccvec:        0.1689248211D-02
       Norm^2 of t2am   after ccvec:        0.6047184982D-01
       Norm^2 of omega1 after ccvec:        0.1187415627D-10
       Norm^2 of omega2 after ccvec:        0.1386132679D-09
 Iter.  8: Coupled cluster CCSD  energy :    -109.2804603806614381
     Conventional correlation energy:    -0.3198104201450889

       Iteration no.:  9
       -----------------

       Time used in   RHS - TOTAL  :       0.02 seconds
       Norm^2 of t1am   after ccvec:        0.1689097516D-02
       Norm^2 of t2am   after ccvec:        0.6047271608D-01
       Norm^2 of omega1 after ccvec:        0.9742116803D-12
       Norm^2 of omega2 after ccvec:        0.7825546116D-11
 Iter.  9: Coupled cluster CCSD  energy :    -109.2804602901195210
     Conventional correlation energy:    -0.3198103296031718

       Iteration no.: 10
       -----------------

       Time used in   RHS - TOTAL  :       0.02 seconds
       Norm^2 of t1am   after ccvec:        0.1689049643D-02
       Norm^2 of t2am   after ccvec:        0.6047277763D-01
       Norm^2 of omega1 after ccvec:        0.1703720425D-12
       Norm^2 of omega2 after ccvec:        0.1230981598D-11
 Iter. 10: Coupled cluster CCSD  energy :    -109.2804602818861639
     Conventional correlation energy:    -0.3198103213698147

       Iteration no.: 11
       -----------------

       Time used in   RHS - TOTAL  :       0.02 seconds
       Norm^2 of t1am   after ccvec:        0.1689020459D-02
       Norm^2 of t2am   after ccvec:        0.6047286220D-01
       Norm^2 of omega1 after ccvec:        0.1760961646D-13
       Norm^2 of omega2 after ccvec:        0.1438143135D-12
 Iter. 11: Coupled cluster CCSD  energy :    -109.2804602867824144
     Conventional correlation energy:    -0.3198103262660652

       Iteration no.: 12
       -----------------

       Time used in   RHS - TOTAL  :       0.02 seconds
       Norm^2 of t1am   after ccvec:        0.1689008325D-02
       Norm^2 of t2am   after ccvec:        0.6047289851D-01
       Norm^2 of omega1 after ccvec:        0.6269712787D-15
       Norm^2 of omega2 after ccvec:        0.1064101579D-13
 Iter. 12: Coupled cluster CCSD  energy :    -109.2804602941017862
     Conventional correlation energy:    -0.3198103335854370

       Iteration no.: 13
       -----------------

       Time used in   RHS - TOTAL  :       0.02 seconds
       Norm^2 of t1am   after ccvec:        0.1689007103D-02
       Norm^2 of t2am   after ccvec:        0.6047290867D-01
       Norm^2 of omega1 after ccvec:        0.2792490943D-16
       Norm^2 of omega2 after ccvec:        0.4265966273D-15
 Iter. 13: Coupled cluster CCSD  energy :    -109.2804602953042803
     Conventional correlation energy:    -0.3198103347879311

       Iteration no.: 14
       -----------------

       Time used in   RHS - TOTAL  :       0.02 seconds
       Norm^2 of t1am   after ccvec:        0.1689007126D-02
       Norm^2 of t2am   after ccvec:        0.6047291053D-01
       Norm^2 of omega1 after ccvec:        0.2165631330D-17
       Norm^2 of omega2 after ccvec:        0.5835430501D-16
 Iter. 14: Coupled cluster CCSD  energy :    -109.2804602952310233
     Conventional correlation energy:    -0.3198103347146741

 CCSD  energy converged to within   0.10D-09 is         -109.280460295231
 Final 2-norm of the CC vector function:  7.77945604D-09


                    +------------------------------------------+
                    ! Largest amplitudes in converged solution !
                    +------------------------------------------+



          CC_PRAM:Overall Contribution of the Different Components
          --------------------------------------------------------



          Single Excitation Contribution :               2.7171 %

          Double Excitation Contribution :              97.2829 %

          ||T1||/||T2||                  :               0.1671

          Tau1 diagnostic                :               0.0130

          Norm of Total Amplitude Vector :               0.2493


 +=============================================================================+
 | symmetry|  orbital index  |   Excitation Numbers             |   Amplitude  |
 |  Index  |   a   b   i   j |      NAI      NBJ |     NAIBJ    |              |
 +=============================================================================+
 | 1   1   |   1       2     |        9          |              |   -0.016794  |
 | 2   2   |   3       1     |       19          |              |   -0.019239  |
 | 3   3   |   3       1     |       23          |              |   -0.019239  |
 +-----------------------------------------------------------------------------+
 | 1 1 1 1 |   5   5   2   2 |       13       13 |           91 |   -0.019064  |
 | 2 2 2 2 |   3   3   1   1 |       19       19 |          190 |   -0.017464  |
 | 3 3 3 3 |   3   3   1   1 |       23       23 |          276 |   -0.017464  |
 | 6 6 5 5 |   1   1   1   1 |       19       19 |          751 |   -0.026060  |
 | 6 6 5 5 |   2   1   1   1 |       20       19 |          770 |    0.023588  |
 | 6 6 5 5 |   2   2   1   1 |       20       20 |          771 |   -0.021866  |
 | 7 7 5 5 |   1   1   1   1 |       19       19 |         1027 |   -0.026060  |
 | 7 7 5 5 |   2   1   1   1 |       20       19 |         1046 |    0.023588  |
 | 7 7 5 5 |   2   2   1   1 |       20       20 |         1047 |   -0.021866  |
 | 5 5 1 1 |   6   6   2   2 |       15       15 |         1338 |   -0.020384  |
 | 6 6 2 2 |   1   1   1   1 |       19       19 |         1408 |   -0.056282  |
 | 6 6 2 2 |   2   1   1   1 |       20       19 |         1427 |    0.052307  |
 | 6 6 2 2 |   3   1   1   1 |       21       19 |         1447 |   -0.019806  |
 | 6 6 2 2 |   2   2   1   1 |       20       20 |         1428 |   -0.049417  |
 | 6 6 2 2 |   3   2   1   1 |       21       20 |         1448 |    0.019968  |
 | 7 6 3 2 |   1   1   1   1 |       24       19 |         1513 |   -0.035153  |
 | 7 6 3 2 |   2   1   1   1 |       25       19 |         1537 |    0.032566  |
 | 7 6 3 2 |   1   2   1   1 |       24       20 |         1514 |    0.032566  |
 | 7 6 3 2 |   2   2   1   1 |       25       20 |         1538 |   -0.030816  |
 | 7 7 3 3 |   1   1   1   1 |       24       24 |         1518 |   -0.056282  |
[...]
 | 5   5   |   3       1     |       27          |              |   -0.017020  |
 | 5   5   |   6       1     |       30          |              |    0.015089  |
 +-----------------------------------------------------------------------------+
 | 6 6 2 2 |   1   1   1   1 |       19       19 |         1408 |   -0.108230  |
 | 6 6 2 2 |   2   1   1   1 |       20       19 |         1427 |    0.100542  |
 | 6 6 2 2 |   2   2   1   1 |       20       20 |         1428 |   -0.094952  |
 | 7 6 3 2 |   1   1   1   1 |       24       19 |         1513 |   -0.105280  |
 | 7 6 3 2 |   2   1   1   1 |       25       19 |         1537 |    0.097674  |
 | 7 6 3 2 |   1   2   1   1 |       24       20 |         1514 |    0.097674  |
 | 7 6 3 2 |   2   2   1   1 |       25       20 |         1538 |   -0.092759  |
 | 7 7 3 3 |   1   1   1   1 |       24       24 |         1518 |   -0.108230  |
 | 7 7 3 3 |   2   1   1   1 |       25       24 |         1542 |    0.100542  |
 | 7 7 3 3 |   2   2   1   1 |       25       25 |         1543 |   -0.094952  |
 +=============================================================================+


          Norm of Printed Amplitude Vector :             0.3234

          Printed all single excitations greater than 0.010000

          Printed all double excitations greater than 0.082831
            Norm of singles part:        0.6682373394E-01
            Norm of doubles part:        0.6059879746E+00


                  Constructing right-hand-side for CCSD-kappa-0
                  ---------------------------------------------

  
 Requested density dependent quantities calculated
 Total time used in CC_DEN:  0.13599997758865356     
 CC_FOP> Norm of RHS vector:   1.0804178281870582E-003


                      Solving for orbital relaxation vector
                      -------------------------------------



  THIS IS OUTPUT FROM THE MCSCF AND SOPPA RESPONSE SOLVER
 ---------------------------------------------------------


 Symmetry of singlet property operator     1
 Number of operators for singlet linear response equations:     1
 Number of response frequencies:     1
 Convergence threshold:     1.00D-07

 Integral transformation: Total CPU and WALL times (sec)       0.015       0.015


   SCF energy         :     -108.960649960516349
 -- inactive part     :     -132.582905982383807
 -- nuclear repulsion :       23.622256021867461


 >>>>>>>>>> Symmetry of excitation/property operator    1

 Number of operators for linear response equations:     1
 Number of response frequencies:     1


 Perturbation symmetry.     KSYMOP:       1
 Perturbation spin symmetry.TRPLET:       F
 Orbital variables.         KZWOPT:      50
 Configuration variables.   KZCONF:       0
 Total number of variables. KZVAR :      50


 RSPLLE -- linear response calculation for symmetry  1
 RSPLLE -- operator no.  1 out of  1
 RSPLLE -- frequencies :  0.000000



 <<<  SOLVING SETS OF LINEAR EQUATIONS FOR LINEAR RESPONSE PROPERTIES >>>

 Operator symmetry =  1; triplet =   F


 ** RSPCTL MICROITERATION NUMBER    1

 GP * SOLUTION vector at frequency     0.00000 a.u.
 after    1 linear transformations is      0.00037145
 INERTIA (POS,ZER,NEG) of reduced matrix is    2    0    0
 Determinant of reduced matrix is  1.21 * 10 **  1.0

       No.  Residual tot.,    conf., and orb.    Bnorm      Frequency 
      ----------------------------------------------------------------
         1    6.46082D-03  0.00D+00  6.46D-03  9.68D-03    0.00000D+00

 ** RSPCTL MICROITERATION NUMBER    2

 GP * SOLUTION vector at frequency     0.00000 a.u.
 after    2 linear transformations is      0.00038548
 INERTIA (POS,ZER,NEG) of reduced matrix is    4    0    0
 Determinant of reduced matrix is  4.92 * 10 **  1.0

       No.  Residual tot.,    conf., and orb.    Bnorm      Frequency 
      ----------------------------------------------------------------
         1    1.66022D-03  0.00D+00  1.66D-03  1.03D-02    0.00000D+00

 ** RSPCTL MICROITERATION NUMBER    3

 GP * SOLUTION vector at frequency     0.00000 a.u.
 after    3 linear transformations is      0.00038611
 INERTIA (POS,ZER,NEG) of reduced matrix is    6    0    0
 Determinant of reduced matrix is  3.80 * 10 **  2.0

       No.  Residual tot.,    conf., and orb.    Bnorm      Frequency 
      ----------------------------------------------------------------
         1    2.82094D-04  0.00D+00  2.82D-04  1.05D-02    0.00000D+00

 ** RSPCTL MICROITERATION NUMBER    4

 GP * SOLUTION vector at frequency     0.00000 a.u.
 after    4 linear transformations is      0.00038613
 INERTIA (POS,ZER,NEG) of reduced matrix is    8    0    0
 Determinant of reduced matrix is  4.27 * 10 **  3.0

       No.  Residual tot.,    conf., and orb.    Bnorm      Frequency 
      ----------------------------------------------------------------
         1    3.92256D-05  0.00D+00  3.92D-05  1.05D-02    0.00000D+00

 ** RSPCTL MICROITERATION NUMBER    5

 GP * SOLUTION vector at frequency     0.00000 a.u.
 after    5 linear transformations is      0.00038613
 INERTIA (POS,ZER,NEG) of reduced matrix is   10    0    0
 Determinant of reduced matrix is  2.06 * 10 **  5.0

       No.  Residual tot.,    conf., and orb.    Bnorm      Frequency 
      ----------------------------------------------------------------
         1    3.37309D-06  0.00D+00  3.37D-06  1.05D-02    0.00000D+00

 ** RSPCTL MICROITERATION NUMBER    6

 GP * SOLUTION vector at frequency     0.00000 a.u.
 after    6 linear transformations is      0.00038613
 INERTIA (POS,ZER,NEG) of reduced matrix is   12    0    0
 Determinant of reduced matrix is  5.85 * 10 **  6.0

       No.  Residual tot.,    conf., and orb.    Bnorm      Frequency 
      ----------------------------------------------------------------
         1    2.99260D-07  0.00D+00  2.99D-07  1.05D-02    0.00000D+00

 ** RSPCTL MICROITERATION NUMBER    7

 GP * SOLUTION vector at frequency     0.00000 a.u.
 after    7 linear transformations is      0.00038613
 INERTIA (POS,ZER,NEG) of reduced matrix is   14    0    0
 Determinant of reduced matrix is  9.88 * 10 **  7.0

       No.  Residual tot.,    conf., and orb.    Bnorm      Frequency 
      ----------------------------------------------------------------
         1    3.17380D-08  0.00D+00  3.17D-08  1.05D-02    0.00000D+00

 ** RSPCTL MICROITERATION NUMBER    8

 GP * SOLUTION vector at frequency     0.00000 a.u.
 after    8 linear transformations is      0.00038613
 INERTIA (POS,ZER,NEG) of reduced matrix is   16    0    0
 Determinant of reduced matrix is  2.71 * 10 **  9.0

       No.  Residual tot.,    conf., and orb.    Bnorm      Frequency 
      ----------------------------------------------------------------
         1    2.55785D-09  0.00D+00  2.56D-09  1.05D-02    0.00000D+00

 ** RSPCTL MICROITERATION NUMBER    9

 GP * SOLUTION vector at frequency     0.00000 a.u.
 after    9 linear transformations is      0.00038613
 INERTIA (POS,ZER,NEG) of reduced matrix is   18    0    0
 Determinant of reduced matrix is  9.08 * 10 ** 10.0

       No.  Residual tot.,    conf., and orb.    Bnorm      Frequency 
      ----------------------------------------------------------------
         1    2.47389D-10  0.00D+00  2.47D-10  1.05D-02    0.00000D+00

 *** THE REQUESTED    1 SOLUTION VECTORS CONVERGED

 Convergence of RSP solution vectors, threshold = 1.00D-07
 ---------------------------------------------------------------
 (dimension of paired reduced space:   18)
 RSP solution vector no.    1; norm of residual   2.35D-08

 *** RSPCTL MICROITERATIONS CONVERGED

 EIGENVECTOR NUMBER     1

     Orbital operator symmetry = 1
     (only elements abs greater than   10.00 % of max abs value)

      Index(r,s)      r      s        (r s) operator      (s r) operator
      ----------    -----  -----      --------------      --------------
           9         2(1)   4(1)       -0.0006062373        0.0006062373
          10         2(1)   5(1)       -0.0005219028        0.0005219028
          12         2(1)   7(1)       -0.0004565249        0.0004565249
          16         2(1)  11(1)        0.0007901989       -0.0007901989
          17         3(1)   4(1)       -0.0015725934        0.0015725934
          18         3(1)   5(1)       -0.0010437637        0.0010437637
          21         3(1)   8(1)       -0.0007520945        0.0007520945
          24         3(1)  11(1)       -0.0012187357        0.0012187357
          25        12(2)  13(2)       -0.0018039361        0.0018039361
          26        12(2)  14(2)        0.0007769859       -0.0007769859
          27        12(2)  15(2)       -0.0037945580        0.0037945580
          28        12(2)  16(2)        0.0022193217       -0.0022193217
          29        17(3)  18(3)       -0.0018039361        0.0018039361
          30        17(3)  19(3)        0.0007769859       -0.0007769859
          31        17(3)  20(3)       -0.0037945580        0.0037945580
          32        17(3)  21(3)        0.0022193217       -0.0022193217
          44        25(5)  28(5)       -0.0009377565        0.0009377565
          46        25(5)  30(5)       -0.0004946172        0.0004946172
          47        25(5)  31(5)        0.0004084502       -0.0004084502
          49        25(5)  33(5)        0.0005764349       -0.0005764349

       30 elements with absolute value less than 3.79D-04 not printed.

 The numbers in parenthesis give the orbital symmetry.

     Configuration operator symmetry = 1
     >> NO ELEMENTS <<


 Time used in linear response calculation is      0.00 CPU seconds for symmetry 1

 >>> Total time used in response solver is         0.02 CPU seconds.

   Equations converged to residual less than:  0.000000
  
 Norm of zeta-kappa-0:   1.1274093636313099E-004
 CCFOP: call CC_D1AO to recalc the 1e Density
  


             +--------------------------------------------------------+
             !   Relaxed CCSD    First-order one-electron properties: !
             +--------------------------------------------------------+



                            +-------------------------+
                            !  Electric Dipole Moment !
                            +-------------------------+



                      Nuclear contribution to dipole moments
                      --------------------------------------

                    All dipole components are zero by symmetry




                     Electronic contribution to dipole moment
                     ----------------------------------------

                    All dipole components are zero by symmetry


 Electronic dipole moment (au):   0.000000000       0.000000000       0.000000000    




                          Total Molecular Dipole Moment
                          -----------------------------

                    All dipole components are zero by symmetry




                          +-----------------------------+
                          !  Electric Quadrupole Moment !
                          +-----------------------------+



                       Nuclear contr. to quadrupole moment
                       -----------------------------------

                    X              Y              Z

               Column   1     Column   2     Column   3
       1      -7.52986976     0.00000000     0.00000000
       2       0.00000000    -7.52986976     0.00000000
       3       0.00000000     0.00000000    15.05973952
    ==== End of matrix output ====


                      Electronic contr. to quadrupole moment
                      --------------------------------------

                    X              Y              Z

               Column   1     Column   2     Column   3
       1      -8.08036657     0.00000000     0.00000000
       2       0.00000000    -8.08036657     0.00000000
       3       0.00000000     0.00000000    16.16073315
    ==== End of matrix output ====


                        Total Molecular quadrupole moment
                        ---------------------------------

                    X              Y              Z

               Column   1     Column   2     Column   3
       1       0.55049682     0.00000000     0.00000000
       2       0.00000000     0.55049682     0.00000000
       3       0.00000000     0.00000000    -1.10099363
    ==== End of matrix output ====


                      +-------------------------------------+
                      !  Electronic second moment of charge !
                      +-------------------------------------+

                    X              Y              Z

               Column   1     Column   2     Column   3
       1       7.75032221     0.00000000     0.00000000
       2       0.00000000     7.75032221     0.00000000
       3       0.00000000     0.00000000    23.91105536
    ==== End of matrix output ====

 Alfa**2 Invariant:                        172.586898
 Beta**2 Invariant:                        261.169296

 Isotropic Property:                        13.137233 a.u.
 Property anisotropy invariant:             16.160733 a.u.


                           +---------------------------+
                           !  Electric Field Gradients !
                           +---------------------------+



                                 Isotopic Masses
                                 ---------------

                           N   _1     14.003074
                           N   _2     14.003074

                       Total mass:    28.006148 amu
                       Natural abundance:  99.261 %

 Center-of-mass coordinates (a.u.):    0.000000    0.000000    0.000000


      *********************************************************************
      **************** ABACUS - Nuclear Quadrupole moments ****************
      *********************************************************************


Total non-diagonalized EFG Tensor   N   _1

               Column   1     Column   2     Column   3
       1       0.45985244     0.00000000     0.00000000
       2       0.00000000     0.45985244     0.00000000
       3       0.00000000     0.00000000    -0.91970488
    ==== End of matrix output ====

Total non-diagonalized EFG Tensor   N   _2

               Column   1     Column   2     Column   3
       1       0.45985244     0.00000000     0.00000000
       2       0.00000000     0.45985244     0.00000000
       3       0.00000000     0.00000000    -0.91970488
    ==== End of matrix output ====
 String on input: "N   _1  "
 String on input: "N__1    "
 String on input: "N   _2  "
 String on input: "N__2    "

EFG Principal axis                  N   _1

               Column   1     Column   2     Column   3
       1       1.00000000     0.00000000     0.00000000
       2       0.00000000     1.00000000     0.00000000
       3       0.00000000     0.00000000     1.00000000
    ==== End of matrix output ====

EFG Principal axis                  N   _2

               Column   1     Column   2     Column   3
       1       1.00000000     0.00000000     0.00000000
       2       0.00000000     1.00000000     0.00000000
       3       0.00000000     0.00000000     1.00000000
    ==== End of matrix output ====


                       Nuclear quadrupole moment for N   _1
                       ------------------------------------

          Spin     :  1.0          Quadrupole moment:0.02044000
                            au           MHz        Gauss
 N   _1 14    Vx =       0.459852     2.208524     0.788970
 N   _1 14    Vy =       0.459852     2.208524     0.788970
 N   _1 14    Vz =      -0.919705    -4.417048    -1.577940
                 Asymmetry constant eta:      0.000000
                 Auxiliary value au  1/T  0.132523D-03


                       Nuclear quadrupole moment for N   _2
                       ------------------------------------

          Spin     :  1.0          Quadrupole moment:0.02044000
                            au           MHz        Gauss
 N   _2 14    Vx =       0.459852     2.208524     0.788970
 N   _2 14    Vy =       0.459852     2.208524     0.788970
 N   _2 14    Vz =      -0.919705    -4.417048    -1.577940
                 Asymmetry constant eta:      0.000000
                 Auxiliary value au  1/T  0.132523D-03


           +------------------------------------------------------------+
           !  Pauli relativistic corrections to the ground-state energy !
           +------------------------------------------------------------+

  
         1-elec. Darwin term:      0.230597410
         ------------------- 
  
         Mass-Velocity term:      -0.288707492
         ------------------  
  
         Mass-Velocity + 1-elec. Darwin terms:      -0.058110082
         ------------------------------------ 

 *******************************************************************

 Ground state energy is target 

 Ecorr =                   -109.28046029523102333769

 *******************************************************************
  

 *******************************************************************************
 *******************************************************************************
 *                                                                             *
 *                                                                             *
 *                   SUMMARY OF COUPLED CLUSTER CALCULATION                    *
 *                                                                             *
 *                                                                             *
 *******************************************************************************
 *******************************************************************************

                                                                                
            Total SCF   energy:                  -108.9606499605                
                                                                                
                                                                                
            Total SCF   energy:                  -108.9606499605                
            Total MP2   energy:                  -109.2778430426                
                                                                                
                                                                                
            Total SCF   energy:                  -108.9606499605                
            Total RSTAR energy:                  -109.2778430426                
            Total CCSD  energy:                  -109.2804602952                
  

 *******************************************************************************
 *******************************************************************************
 *                                                                             *
 *                                                                             *
 *                      END OF COUPLED CLUSTER CALCULATION                     *
 *                                                                             *
 *                                                                             *
 *******************************************************************************
 *******************************************************************************


 >>>> CPU and wall time for CC :       0.771       0.830

 
     Date and time (Linux)  : Sun Sep  8 20:42:21 2013
     Host name              : lpqlx131.ups-tlse.fr                    


                      .-------------------------------------.
                      | End of Coupled Cluster Section (CC) |
                      `-------------------------------------'

 >>>> Total CPU  time used in DALTON:   0.87 seconds
 >>>> Total wall time used in DALTON:   0.93 seconds

 
     Date and time (Linux)  : Sun Sep  8 20:42:21 2013
     Host name              : lpqlx131.ups-tlse.fr                    
