

     ************************************************************************
     *************** Dalton - An Electronic Structure Program ***************
     ************************************************************************

    This is output from DALTON 2014.0
   ----------------------------------------------------------------------------
    NOTE:
     
    Dalton is an experimental code for the evaluation of molecular
    properties using (MC)SCF, DFT, CI, and CC wave functions.
    The authors accept no responsibility for the performance of
    the code or for the correctness of the results.
     
    The code (in whole or part) is provided under a licence and
    is not to be reproduced for further distribution without
    the written permission of the authors or their representatives.
     
    See the home page "http://daltonprogram.org" for further information.
     
    If results obtained with this code are published,
    the appropriate citations would be both of:
     
       K. Aidas, C. Angeli, K. L. Bak, V. Bakken, R. Bast,
       L. Boman, O. Christiansen, R. Cimiraglia, S. Coriani,
       J. Cukras, P. Dahle, E. K. Dalskov, U. Ekstroem,
       T. Enevoldsen, J. J. Eriksen, P. Ettenhuber, B. Fernandez,
       L. Ferrighi, H. Fliegl, L. Frediani, K. Hald, A. Halkier,
       C. Haettig, H. Heiberg, T. Helgaker, A. C. Hennum,
       H. Hettema, E. Hjertenaes, S. Hoest, I.-M. Hoeyvik,
       M. F. Iozzi, B. Jansik, H. J. Aa. Jensen, D. Jonsson,
       P. Joergensen, M. Kaminski, J. Kauczor, S. Kirpekar,
       T. Kjaergaard, W. Klopper, S. Knecht, R. Kobayashi, H. Koch,
       J. Kongsted, A. Krapp, K. Kristensen, A. Ligabue,
       O. B. Lutnaes, J. I. Melo, K. V. Mikkelsen, R. H. Myhre,
       C. Neiss, C. B. Nielsen, P. Norman, J. Olsen,
       J. M. H. Olsen, A. Osted, M. J. Packer, F. Pawlowski,
       T. B. Pedersen, P. F. Provasi, S. Reine, Z. Rinkevicius,
       T. A. Ruden, K. Ruud, V. Rybkin, P. Salek, C. C. M. Samson,
       A. Sanchez de Meras, T. Saue, S. P. A. Sauer,
       B. Schimmelpfennig, K. Sneskov, A. H. Steindal,
       K. O. Sylvester-Hvid, P. R. Taylor, A. M. Teale,
       E. I. Tellgren, D. P. Tew, A. J. Thorvaldsen, L. Thoegersen,
       O. Vahtras, M. A. Watson, D. J. D. Wilson, M. Ziolkowski
       and H. Agren,
       "The Dalton quantum chemistry program system",
       WIREs Comput. Mol. Sci. 2013. (doi: 10.1002/wcms.1172)
    
    and
    
       Dalton, a Molecular Electronic Structure Program,
       Release DALTON2014.0 (2014), see http://daltonprogram.org
   ----------------------------------------------------------------------------

    Authors in alphabetical order (major contribution(s) in parenthesis):

  Kestutis Aidas,           Vilnius University,           Lithuania   (QM/MM)
  Celestino Angeli,         University of Ferrara,        Italy       (NEVPT2)
  Keld L. Bak,              UNI-C,                        Denmark     (AOSOPPA, non-adiabatic coupling, magnetic properties)
  Vebjoern Bakken,          University of Oslo,           Norway      (DALTON; geometry optimizer, symmetry detection)
  Radovan Bast,             KTH Stockholm,                Sweden      (DALTON installation and execution frameworks)
  Pablo Baudin,             University of Valencia,       Spain       (Cholesky excitation energies)
  Linus Boman,              NTNU,                         Norway      (Cholesky decomposition and subsystems)
  Ove Christiansen,         Aarhus University,            Denmark     (CC module)
  Renzo Cimiraglia,         University of Ferrara,        Italy       (NEVPT2)
  Sonia Coriani,            University of Trieste,        Italy       (CC module, MCD in RESPONS)
  Janusz Cukras,            University of Trieste,        Italy       (MChD in RESPONS)
  Paal Dahle,               University of Oslo,           Norway      (Parallelization)
  Erik K. Dalskov,          UNI-C,                        Denmark     (SOPPA)
  Thomas Enevoldsen,        Univ. of Southern Denmark,    Denmark     (SOPPA)
  Janus J. Eriksen,         Aarhus University,            Denmark     (Polarizable embedding model, TDA)
  Berta Fernandez,          U. of Santiago de Compostela, Spain       (doublet spin, ESR in RESPONS)
  Lara Ferrighi,            Aarhus University,            Denmark     (PCM Cubic response)
  Heike Fliegl,             University of Oslo,           Norway      (CCSD(R12))
  Luca Frediani,            UiT The Arctic U. of Norway,  Norway      (PCM)
  Bin Gao,                  UiT The Arctic U. of Norway,  Norway      (Gen1Int library)
  Christof Haettig,         Ruhr-University Bochum,       Germany     (CC module)
  Kasper Hald,              Aarhus University,            Denmark     (CC module)
  Asger Halkier,            Aarhus University,            Denmark     (CC module)
  Erik D. Hedegaard,        Univ. of Southern Denmark,    Denmark     (Polarizable embedding model, QM/MM)
  Hanne Heiberg,            University of Oslo,           Norway      (geometry analysis, selected one-electron integrals)
  Trygve Helgaker,          University of Oslo,           Norway      (DALTON; ABACUS, ERI, DFT modules, London, and much more)
  Alf Christian Hennum,     University of Oslo,           Norway      (Parity violation)
  Hinne Hettema,            University of Auckland,       New Zealand (quadratic response in RESPONS; SIRIUS supersymmetry)
  Eirik Hjertenaes,         NTNU,                         Norway      (Cholesky decomposition)
  Maria Francesca Iozzi,    University of Oslo,           Norway      (RPA)
  Brano Jansik              Technical Univ. of Ostrava    Czech Rep.  (DFT cubic response)
  Hans Joergen Aa. Jensen,  Univ. of Southern Denmark,    Denmark     (DALTON; SIRIUS, RESPONS, ABACUS modules, London, and much more)
  Dan Jonsson,              UiT The Arctic U. of Norway,  Norway      (cubic response in RESPONS module)
  Poul Joergensen,          Aarhus University,            Denmark     (RESPONS, ABACUS, and CC modules)
  Maciej Kaminski,          University of Warsaw,         Poland      (CPPh in RESPONS)
  Joanna Kauczor,           Linkoeping University,        Sweden      (Complex polarization propagator (CPP) module)
  Sheela Kirpekar,          Univ. of Southern Denmark,    Denmark     (Mass-velocity & Darwin integrals)
  Wim Klopper,              KIT Karlsruhe,                Germany     (R12 code in CC, SIRIUS, and ABACUS modules)
  Stefan Knecht,            ETH Zurich,                   Switzerland (Parallel CI and MCSCF)
  Rika Kobayashi,           Australian National Univ.,    Australia   (DIIS in CC, London in MCSCF)
  Henrik Koch,              NTNU,                         Norway      (CC module, Cholesky decomposition)
  Jacob Kongsted,           Univ. of Southern Denmark,    Denmark     (Polarizable embedding model, QM/MM)
  Andrea Ligabue,           University of Modena,         Italy       (CTOCD, AOSOPPA)
  Nanna H. List             Univ. of Southern Denmark,    Denmark     (Polarizable embedding model)
  Ola B. Lutnaes,           University of Oslo,           Norway      (DFT Hessian)
  Juan I. Melo,             University of Buenos Aires,   Argentina   (LRESC, Relativistic Effects on NMR Shieldings)
  Kurt V. Mikkelsen,        University of Copenhagen,     Denmark     (MC-SCRF and QM/MM)
  Rolf H. Myhre,            NTNU,                         Norway      (Cholesky, subsystems and ECC2)
  Christian Neiss,          Univ. Erlangen-Nuernberg,     Germany     (CCSD(R12))
  Christian B. Nielsen,     University of Copenhagen,     Denmark     (QM/MM)
  Patrick Norman,           Linkoeping University,        Sweden      (Cubic response and complex response in RESPONS)
  Jeppe Olsen,              Aarhus University,            Denmark     (SIRIUS CI/density modules)
  Jogvan Magnus H. Olsen,   Univ. of Southern Denmark,    Denmark     (Polarizable embedding model, QM/MM)
  Anders Osted,             Copenhagen University,        Denmark     (QM/MM)
  Martin J. Packer,         University of Sheffield,      UK          (SOPPA)
  Filip Pawlowski,          Kazimierz Wielki University,  Poland      (CC3)
  Morten N. Pedersen,       Univ. of Southern Denmark,    Denmark     (Polarizable embedding model)
  Thomas B. Pedersen,       University of Oslo,           Norway      (Cholesky decomposition)
  Patricio F. Provasi,      University of Northeastern,   Argentina   (Analysis of coupling constants in localized orbitals)
  Zilvinas Rinkevicius,     KTH Stockholm,                Sweden      (open-shell DFT, ESR)
  Elias Rudberg,            KTH Stockholm,                Sweden      (DFT grid and basis info)
  Torgeir A. Ruden,         University of Oslo,           Norway      (Numerical derivatives in ABACUS)
  Kenneth Ruud,             UiT The Arctic U. of Norway,  Norway      (DALTON; ABACUS magnetic properties and much more)
  Pawel Salek,              KTH Stockholm,                Sweden      (DALTON; DFT code)
  Claire C. M. Samson       University of Karlsruhe       Germany     (Boys localization, r12 integrals in ERI)
  Alfredo Sanchez de Meras, University of Valencia,       Spain       (CC module, Cholesky decomposition)
  Trond Saue,               Paul Sabatier University,     France      (direct Fock matrix construction)
  Stephan P. A. Sauer,      University of Copenhagen,     Denmark     (SOPPA(CCSD), SOPPA prop., AOSOPPA, vibrational g-factors)
  Bernd Schimmelpfennig,    Forschungszentrum Karlsruhe,  Germany     (AMFI module)
  Kristian Sneskov,         Aarhus University,            Denmark     (Polarizable embedding model, QM/MM)
  Arnfinn H. Steindal,      UiT The Arctic U. of Norway,  Norway      (parallel QM/MM, Polarizable embedding model)
  Casper Steinmann,         Univ. of Southern Denmark,    Denmark     (QFIT, Polarizable embedding model)
  K. O. Sylvester-Hvid,     University of Copenhagen,     Denmark     (MC-SCRF)
  Peter R. Taylor,          VLSCI/Univ. of Melbourne,     Australia   (Symmetry handling ABACUS, integral transformation)
  Andrew M. Teale,          University of Nottingham,     England     (DFT-AC, DFT-D)
  David P. Tew,             University of Bristol,        England     (CCSD(R12))
  Olav Vahtras,             KTH Stockholm,                Sweden      (triplet response, spin-orbit, ESR, TDDFT, open-shell DFT)
  David J. Wilson,          La Trobe University,          Australia   (DFT Hessian and DFT magnetizabilities)
  Hans Agren,               KTH Stockholm,                Sweden      (SIRIUS module, RESPONS, MC-SCRF solvation model)
 --------------------------------------------------------------------------------

     Date and time (Linux)  : Thu Dec 18 08:15:14 2014
     Host name              : nat-100219.local                        

 * Work memory size             :    64000000 =  488.28 megabytes.

 * Directories for basis set searches:
   1) /Users/hjj/prog/gitDalton_repo_2013/build_master_mpi49/test/dft_properties_sym
   2) /Users/hjj/prog/gitDalton_repo_2013/build_master_mpi49/basis


Compilation information
-----------------------

 Who compiled             | hjj
 Host                     | nat-100219.local
 System                   | Darwin-13.4.0
 CMake generator          | Unix Makefiles
 Processor                | x86_64
 64-bit integers          | OFF
 MPI                      | ON
 Fortran compiler         | /opt/local/bin/mpif90
 C compiler               | /opt/local/bin/mpicc
 C++ compiler             | /opt/local/bin/mpicxx
 BLAS                     | /opt/local/lib/libf77blas.a;/usr/lib/libcblas.dyli
                          | b;/opt/local/lib/libatlas.a
 LAPACK                   | /opt/local/lib/libatlas.a;/usr/lib/liblapack.dylib
 Static linking           | OFF
 Last Git revision        | e1cd69f31331130cdad95789880834c3807a0a2c
 Git branch               | master
 Configuration time       | 2014-12-17 22:54:33.455468

 * Sequential calculation.


   Content of the .dal input file
 ----------------------------------

**DALTON INPUT                                    
.RUN PROPERTIES                                   
**WAVE FUNCTIONS                                  
.DFT                                              
 B3LYP                                            
*SCF INPUT                                        
.THRESH                                           
 1.0d-10                                          
*DFT INPUT                                        
.ANGINT                                           
42                                                
**PROPERTIES                                      
.SHIELDINGS                                       
.EXCITA                                           
.SPIN-SPIN                                        
*EXCITA                                           
.NEXCIT                                           
 2 0 0 0                                          
**END OF DALTON INPUT                             


   Content of the .mol file
 ----------------------------

BASIS                                                                          
cc-pVDZ                                                                        
H2O                                                                            
                                                                               
    2                                                                          
        8.    1                                                                
O     0.0  0.0000000000 0.0                                                    
        1.    2                                                                
H     1.430    0.0  1.1                                                        
H    -1.430    0.0  1.1                                                        


       *******************************************************************
       *********** Output from DALTON general input processing ***********
       *******************************************************************

 --------------------------------------------------------------------------------
   Overall default print level:    0
   Print level for DALTON.STAT:    1

    HERMIT 1- and 2-electron integral sections will be executed
    "Old" integral transformation used (limited to max 255 basis functions)
    Wave function sections will be executed (SIRIUS module)
    Static molecular property section will be executed (ABACUS module)
 --------------------------------------------------------------------------------


   ****************************************************************************
   *************** Output of molecule and basis set information ***************
   ****************************************************************************


    The two title cards from your ".mol" input:
    ------------------------------------------------------------------------
 1: H2O                                                                     
 2:                                                                         
    ------------------------------------------------------------------------



@ WARNING - deprecated old .mol fixed format input has been detected:
    2                                                                           
@ WARNING - this input format may not be supported in future releases.




  Atomic type no.    1
  --------------------
  Nuclear charge:   8.00000
  Number of symmetry independent centers:    1
  Number of basis sets to read;    2
  Basis set file used for this atomic type with Z =   8 :
     "/Users/hjj/prog/gitDalton_repo_2013/build_master_mpi49/basis/cc-pVDZ"

  Atomic type no.    2
  --------------------
  Nuclear charge:   1.00000
  Number of symmetry independent centers:    2
  Number of basis sets to read;    2
  Basis set file used for this atomic type with Z =   1 :
     "/Users/hjj/prog/gitDalton_repo_2013/build_master_mpi49/basis/cc-pVDZ"


                      SYMADD: Requested addition of symmetry
                      --------------------------------------

 Symmetry test threshold:  5.00E-06

@   The molecule is centered at center of mass and rotated
@   so principal axes of inertia are along coordinate axes.

 Symmetry class found: C(2v)          

 Symmetry Independent Centres             
 ----------------------------
       8 :      0.00000000     0.00000000    -0.12310635  Isotope  1
       1 :      0.00000000     1.43000000     0.97689365  Isotope  1

 The following elements were found:   X  Y     


                         SYMGRP: Point group information
                         -------------------------------

@    Full point group is: C(2v)          
@    Represented as:      C2v

@  * The irrep name for each symmetry:    1: A1     2: B1     3: B2     4: A2 

   * The point group was generated by:

      Reflection in the yz-plane
      Reflection in the xz-plane

   * Group multiplication table

        |  E   C2z  Oxz  Oyz
   -----+--------------------
     E  |  E   C2z  Oxz  Oyz
    C2z | C2z   E   Oyz  Oxz
    Oxz | Oxz  Oyz   E   C2z
    Oyz | Oyz  Oxz  C2z   E 

   * Character table

        |  E   C2z  Oxz  Oyz
   -----+--------------------
    A1  |   1    1    1    1
    B1  |   1   -1    1   -1
    B2  |   1   -1   -1    1
    A2  |   1    1   -1   -1

   * Direct product table

        | A1   B1   B2   A2 
   -----+--------------------
    A1  | A1   B1   B2   A2 
    B1  | B1   A1   A2   B2 
    B2  | B2   A2   A1   B1 
    A2  | A2   B2   B1   A1 


                                 Isotopic Masses
                                 ---------------

                           O          15.994915
                           H   _1      1.007825
                           H   _2      1.007825

                       Total mass:    18.010565 amu
                       Natural abundance:  99.730 %

 Center-of-mass coordinates (a.u.):    0.000000    0.000000    0.000000


  Atoms and basis sets
  --------------------

  Number of atom types :    2
  Total number of atoms:    3

  Basis set used is "cc-pVDZ" from the basis set library.

  label    atoms   charge   prim   cont     basis
  ----------------------------------------------------------------------
  O           1    8.0000    26    14      [9s4p1d|3s2p1d]                                    
  H           2    1.0000     7     5      [4s1p|2s1p]                                        
  ----------------------------------------------------------------------
  total:      3   10.0000    40    24
  ----------------------------------------------------------------------
  Spherical harmonic basis used.

  Threshold for neglecting AO integrals:  1.00D-12


  Cartesian Coordinates (a.u.)
  ----------------------------

  Total number of coordinates:    9
  O       :     1  x   0.0000000000    2  y   0.0000000000    3  z  -0.1231063545
  H   / 1 :     4  x   0.0000000000    5  y   1.4300000000    6  z   0.9768936455
  H   / 2 :     7  x   0.0000000000    8  y  -1.4300000000    9  z   0.9768936455


  Symmetry Coordinates
  --------------------

  Number of coordinates in each symmetry:     3    2    3    1

  Symmetry  A1  ( 1)

    1   O     z    3
    2   H     y    [  5  -    8 ]/2
    3   H     z    [  6  +    9 ]/2

  Symmetry  B1  ( 2)

    4   O     x    1
    5   H     x    [  4  +    7 ]/2

  Symmetry  B2  ( 3)

    6   O     y    2
    7   H     y    [  5  +    8 ]/2
    8   H     z    [  6  -    9 ]/2

  Symmetry  A2  ( 4)

    9   H     x    [  4  -    7 ]/2


   Interatomic separations (in Angstrom):
   --------------------------------------

            O           H   _1      H   _2
            ------      ------      ------
 O     :    0.000000
 H   _1:    0.954707    0.000000
 H   _2:    0.954707    1.513447    0.000000


  Max    interatomic separation is    1.5134 Angstrom (    2.8600 Bohr)
  between atoms    3 and    2, "H   _2" and "H   _1".

  Min HX interatomic separation is    0.9547 Angstrom (    1.8041 Bohr)


  Bond distances (Angstrom):
  --------------------------

                  atom 1     atom 2       distance
                  ------     ------       --------
  bond distance:  H   _1     O            0.954707
  bond distance:  H   _2     O            0.954707


  Bond angles (degrees):
  ----------------------

                  atom 1     atom 2     atom 3         angle
                  ------     ------     ------         -----
  bond angle:     H   _1     O          H   _2       104.863




 Principal moments of inertia (u*A**2) and principal axes
 --------------------------------------------------------

   IA       0.606537          0.000000    1.000000    0.000000
   IB       1.154222          0.000000    0.000000    1.000000
   IC       1.760759          1.000000    0.000000    0.000000


 Rotational constants
 --------------------

@    The molecule is planar.

               A                   B                   C

         833220.2929         437852.3988         287023.3200 MHz
           27.793237           14.605184            9.574067 cm-1


@  Nuclear repulsion energy :    9.218170507464 Hartree


  Symmetry Orbitals
  -----------------

  Number of orbitals in each symmetry:          11    4    7    2


  Symmetry  A1 ( 1)

    1     O        1s         1
    2     O        1s         2
    3     O        1s         3
    4     O        2pz        6
    5     O        2pz        9
    6     O        3d0       12
    7     O        3d2+      14
    8     H        1s        15 +   16
    9     H        1s        17 +   18
   10     H        2py       21 -   22
   11     H        2pz       23 +   24


  Symmetry  B1 ( 2)

   12     O        2px        4
   13     O        2px        7
   14     O        3d1+      13
   15     H        2px       19 +   20


  Symmetry  B2 ( 3)

   16     O        2py        5
   17     O        2py        8
   18     O        3d1-      11
   19     H        1s        15 -   16
   20     H        1s        17 -   18
   21     H        2py       21 +   22
   22     H        2pz       23 -   24


  Symmetry  A2 ( 4)

   23     O        3d2-      10
   24     H        2px       19 -   20

  Symmetries of electric field:  B1 (2)  B2 (3)  A1 (1)

  Symmetries of magnetic field:  B2 (3)  B1 (2)  A2 (4)


                     .---------------------------------------.
                     | Starting in Integral Section (HERMIT) |
                     `---------------------------------------'



 ***************************************************************************************
 ****************** Output from **INTEGRALS input processing (HERMIT) ******************
 ***************************************************************************************


 - Using defaults, no **INTEGRALS input found

 Default print level:        1

 * Nuclear model: Point charge

 Calculation of one- and two-electron Hamiltonian integrals.

 Center of mass  (bohr):      0.000000000000      0.000000000000      0.000000000000
 Operator center (bohr):      0.000000000000      0.000000000000      0.000000000000
 Gauge origin    (bohr):      0.000000000000      0.000000000000      0.000000000000
 Dipole origin   (bohr):      0.000000000000      0.000000000000      0.000000000000


     ************************************************************************
     ************************** Output from HERINT **************************
     ************************************************************************


 Threshold for neglecting two-electron integrals:  1.00D-12
 HERMIT - Number of two-electron integrals written:       11412 ( 25.3% )
 HERMIT - Megabytes written:                              0.137

 >>>> Total CPU  time used in HERMIT:   0.03 seconds
 >>>> Total wall time used in HERMIT:   0.06 seconds


                        .----------------------------------.
                        | End of Integral Section (HERMIT) |
                        `----------------------------------'



                   .--------------------------------------------.
                   | Starting in Wave Function Section (SIRIUS) |
                   `--------------------------------------------'



 Settings for DFT calculation:
 -----------------------------

     Default thresholds:                                       1.00D-09    1.00D-10    2.00D-12
     Default threshold for number of electrons:                1.00D-03
     DFT radial quadrature accuracy and ang. expansion order:              1.00D-13  42

 *** Output from Huckel module :

     Using EWMO model:          F
     Using EHT  model:          T
     Number of Huckel orbitals each symmetry:    4    1    2    0

 Huckel EHT eigenvalues for symmetry :  1
          -20.705882      -1.507590      -0.670019      -0.291429

 Huckel EHT eigenvalues for symmetry :  2
           -0.616200

 Huckel EHT eigenvalues for symmetry :  3
           -0.731893      -0.256887

 **********************************************************************
 *SIRIUS* a direct, restricted step, second order MCSCF program       *
 **********************************************************************

 
     Date and time (Linux)  : Thu Dec 18 08:15:14 2014
     Host name              : nat-100219.local                        

 Title lines from ".mol" input file:
     H2O                                                                     
                                                                             

 Print level on unit LUPRI =   2 is   0
 Print level on unit LUW4  =   2 is   5

@    Restricted, closed shell Kohn-Sham DFT calculation.

 Initial molecular orbitals are obtained according to
 ".MOSTART EHT   " input option

     Wave function specification
     ============================
@    Wave function type        >>> KS-DFT <<<
@    Number of closed shell electrons          10
@    Number of electrons in active shells       0
@    Total charge of the molecule               0

@    Spin multiplicity and 2 M_S                1         0
@    Total number of symmetries                 4 (point group: C2v)
@    Reference state symmetry                   1 (irrep name : A1 )
 
     This is a DFT calculation of type: B3LYP
 Weighted mixed functional:
               HF exchange:    0.20000
                       VWN:    0.19000
                       LYP:    0.81000
                     Becke:    0.72000
                    Slater:    0.80000

     Orbital specifications
     ======================
     Abelian symmetry species          All |    1    2    3    4
                                           |  A1   B1   B2   A2 
                                       --- |  ---  ---  ---  ---
     Total number of orbitals           24 |   11    4    7    2
     Number of basis functions          24 |   11    4    7    2

      ** Automatic occupation of RKS orbitals **

      -- Initial occupation of symmetries is determined from extended Huckel guess.           
      -- Initial occupation of symmetries is :
@    Occupied SCF orbitals               5 |    3    1    1    0

     Maximum number of Fock   iterations      0
     Maximum number of DIIS   iterations     60
     Maximum number of QC-SCF iterations     60
     Threshold for SCF convergence     1.00D-10
 
     This is a DFT calculation of type: B3LYP
 Weighted mixed functional:
               HF exchange:    0.20000
                       VWN:    0.19000
                       LYP:    0.81000
                     Becke:    0.72000
                    Slater:    0.80000


 ***********************************************
 ***** DIIS acceleration of SCF iterations *****
 ***********************************************

 C1-DIIS algorithm; max error vectors =    8

 Automatic occupation of symmetries with  10 electrons.

 Iter     Total energy    Error norm  Delta(E)    SCF occupation
 -----------------------------------------------------------------------------
      K-S energy, electrons, error :     -7.450305496896   9.9999995958   -4.04D-07
@  1  -76.1658719749       2.33D+00  -7.62D+01     3   1   1   0
      Virial theorem: -V/T =      2.004207
@      MULPOP O      -0.43; H   _1  0.21; H   _2  0.21; 
 -----------------------------------------------------------------------------
      K-S energy, electrons, error :     -7.599688862074   9.9999995916   -4.08D-07
@  2  -76.3650422073       6.68D-01  -1.99D-01     3   1   1   0
      Virial theorem: -V/T =      1.997927
@      MULPOP O      -0.22; H   _1  0.11; H   _2  0.11; 
 -----------------------------------------------------------------------------
      K-S energy, electrons, error :     -7.502283044617   9.9999995941   -4.06D-07
@  3  -76.3803119108       2.53D-01  -1.53D-02     3   1   1   0
      Virial theorem: -V/T =      2.008784
@      MULPOP O      -0.21; H   _1  0.10; H   _2  0.10; 
 -----------------------------------------------------------------------------
      K-S energy, electrons, error :     -7.565178408937   9.9999995917   -4.08D-07
@  4  -76.3821167799       1.45D-01  -1.80D-03     3   1   1   0
      Virial theorem: -V/T =      2.001560
@      MULPOP O      -0.28; H   _1  0.14; H   _2  0.14; 
 -----------------------------------------------------------------------------
      K-S energy, electrons, error :     -7.541870543226   9.9999995925   -4.08D-07
@  5  -76.3830504456       5.10D-03  -9.34D-04     3   1   1   0
      Virial theorem: -V/T =      2.004211
@      MULPOP O      -0.25; H   _1  0.13; H   _2  0.13; 
 -----------------------------------------------------------------------------
      K-S energy, electrons, error :     -7.542587410361   9.9999995924   -4.08D-07
@  6  -76.3830515644       9.48D-05  -1.12D-06     3   1   1   0
      Virial theorem: -V/T =      2.004125
@      MULPOP O      -0.25; H   _1  0.13; H   _2  0.13; 
 -----------------------------------------------------------------------------
      K-S energy, electrons, error :     -7.542599629840   9.9999995924   -4.08D-07
@  7  -76.3830515650       5.12D-06  -5.89D-10     3   1   1   0
      Virial theorem: -V/T =      2.004123
@      MULPOP O      -0.25; H   _1  0.13; H   _2  0.13; 
 -----------------------------------------------------------------------------
      K-S energy, electrons, error :     -7.542599716237   9.9999995924   -4.08D-07
@  8  -76.3830515650       2.33D-07  -3.57D-12     3   1   1   0
      Virial theorem: -V/T =      2.004123
@      MULPOP O      -0.25; H   _1  0.13; H   _2  0.13; 
 -----------------------------------------------------------------------------
      K-S energy, electrons, error :     -7.542599727103   9.9999995924   -4.08D-07
@  9  -76.3830515650       1.40D-08   5.68D-14     3   1   1   0
      Virial theorem: -V/T =      2.004123
@      MULPOP O      -0.25; H   _1  0.13; H   _2  0.13; 
 -----------------------------------------------------------------------------
      K-S energy, electrons, error :     -7.542599727923   9.9999995924   -4.08D-07
@ 10  -76.3830515650       2.54D-10   4.26D-14     3   1   1   0
      Virial theorem: -V/T =      2.004123
@      MULPOP O      -0.25; H   _1  0.13; H   _2  0.13; 
 -----------------------------------------------------------------------------
      K-S energy, electrons, error :     -7.542599727915   9.9999995924   -4.08D-07
@ 11  -76.3830515650       3.83D-11   0.00D+00     3   1   1   0

@ *** DIIS converged in  11 iterations !
@     Converged SCF energy, gradient:    -76.383051564989    3.83D-11
    - total time used in SIRFCK :              0.00 seconds


 *** SCF orbital energy analysis ***

 Only the five lowest virtual orbital energies printed in each symmetry.

 Number of electrons :   10
 Orbital occupations :    3    1    1    0

 Sym       Kohn-Sham orbital energies

1 A1    -19.11780175    -0.99258385    -0.36062827     0.05581126     0.61891638
          0.90435972     1.21049446     1.59655002

2 B1     -0.28460779     0.92249181     1.43317450     2.92602040

3 B2     -0.51216730     0.13164230     0.56760755     0.99822277     1.67579054
          2.12756216

4 A2      1.23635175     2.97457651

    E(LUMO) :     0.05581126 au (symmetry 1)
  - E(HOMO) :    -0.28460779 au (symmetry 2)
  ------------------------------------------
    gap     :     0.34041905 au

 >>> Writing SIRIFC interface file

 >>>> CPU and wall time for SCF :       3.534       3.624


                       .-----------------------------------.
                       | >>> Final results from SIRIUS <<< |
                       `-----------------------------------'


@    Spin multiplicity:           1
@    Spatial symmetry:            1 ( irrep  A1  in C2v )
@    Total charge of molecule:    0

@    Final DFT energy:            -76.383051564989                 
@    Nuclear repulsion:             9.218170507464
@    Electronic energy:           -85.601222072453

@    Final gradient norm:           0.000000000038

 
     Date and time (Linux)  : Thu Dec 18 08:15:18 2014
     Host name              : nat-100219.local                        

 (Only coefficients >0.0100 are printed.)

 Molecular orbitals for symmetry species 1  (A1 )
 ------------------------------------------------

    Orbital         1        2        3        4        5
   1 O   :1s     1.0027  -0.0067   0.0073   0.0312   0.0638
   2 O   :1s     0.0151   0.8672  -0.3247  -0.2509   0.4733
   3 O   :1s    -0.0128  -0.1515  -0.1921  -0.7691  -0.5937
   4 O   :2pz    0.0029   0.1676   0.7983  -0.3507   0.5437
   5 O   :2pz   -0.0021  -0.0859  -0.0136  -0.1470  -0.3005
   6 O   :3d0    0.0000   0.0022   0.0185  -0.0082   0.0015
   7 O   :3d2+  -0.0005  -0.0046  -0.0021   0.0049   0.0987
   8 H   :1s    -0.0009   0.3526   0.3391   0.1785  -1.3705
   9 H   :1s     0.0014  -0.1613  -0.1231   0.6843   1.2890
  10 H   :2py    0.0010  -0.0377  -0.0244   0.0018  -0.2580
  11 H   :2pz    0.0009  -0.0188   0.0157  -0.0049  -0.0507

 Molecular orbitals for symmetry species 2  (B1 )
 ------------------------------------------------

    Orbital         1        2        3
   1 O   :2px    0.9267  -1.4058   0.0061
   2 O   :2px    0.0620   1.6611   0.6522
   3 O   :3d1+   0.0193  -0.0027  -0.1700
   4 H   :2px    0.0329   0.0250  -0.7641

 Molecular orbitals for symmetry species 3  (B2 )
 ------------------------------------------------

    Orbital         1        2        3
   1 O   :2py    0.7344  -0.5309   0.4321
   2 O   :2py   -0.1437  -0.3706   0.1483
   3 O   :3d1-   0.0238  -0.0117  -0.1065
   4 H   :1s     0.5641   0.1605  -1.6033
   5 H   :1s    -0.1732   1.2469   1.6407
   6 H   :2py   -0.0156  -0.0030  -0.0630
   7 H   :2pz   -0.0281   0.0013  -0.1396

 Molecular orbitals for symmetry species 4  (A2 )
 ------------------------------------------------

    Orbital         1        2
   1 O   :3d2-  -0.1382   1.0667
   2 H   :2px   -0.6829  -0.3785



 >>>> Total CPU  time used in SIRIUS :      3.54 seconds
 >>>> Total wall time used in SIRIUS :      3.64 seconds

 
     Date and time (Linux)  : Thu Dec 18 08:15:18 2014
     Host name              : nat-100219.local                        

 NOTE:    1 warnings have been issued.
 Check output, result, and error files for "WARNING".


                     .---------------------------------------.
                     | End of Wave Function Section (SIRIUS) |
                     `---------------------------------------'



        *****************************************************************
        ******** Output from **PROPE input processing for ABACUS ********
        *****************************************************************



 The following molecular properties will be calculated in this run:
 ------------------------------------------------------------------

 Default print level:        0

      Electronic excitation energies 
      Nuclear magnetic shieldings
      Nuclear spin-spin coupling constants
      Natural orbital connection is used
      for perturbation dependent basis sets.


 Changes of defaults for .EXCITA:
 --------------------------------

 Number of excitation energies:    2    0    0    0
 Print level          :    0
 Integral print level :    0
 Convergence threshold: 1.00E-04
 Maximum iterations   :   60

 Center of mass dipole origin  :    0.000000    0.000000    0.000000

 Center of mass gauge origin   :    0.000000    0.000000    0.000000


                 .------------------------------------------------.
                 | Starting in Static Property Section (ABACUS) - |
                 `------------------------------------------------'


 
     Date and time (Linux)  : Thu Dec 18 08:15:18 2014
     Host name              : nat-100219.local                        

Symmetry -> DSO by analytical integration.

 Integral transformation: Total CPU and WALL times (sec)       0.008       0.012
    Convergence for SD 003 y. Last residual and threshold:   0.00002   0.00010
    Convergence for SD 004 y. Last residual and threshold:   0.00002   0.00010
    Convergence for SD 006 x. Last residual and threshold:   0.00003   0.00010
    Convergence for SD 009 z. Last residual and threshold:   0.00004   0.00010
    Convergence for FC H  02. Last residual and threshold:   0.00001   0.00010
    Convergence for SD 008 x. Last residual and threshold:   0.00001   0.00010
    Convergence for SD 009 x. Last residual and threshold:   0.00007   0.00010
    Convergence for SD 001 x. Last residual and threshold:   0.00002   0.00010
    Convergence for SD 004 z. Last residual and threshold:   0.00002   0.00010
    Convergence for SD 008 y. Last residual and threshold:   0.00002   0.00010
    Convergence for SD 009 y. Last residual and threshold:   0.00002   0.00010
    Convergence for FC H  03. Last residual and threshold:   0.00001   0.00010
    Convergence for SD 003 x. Last residual and threshold:   0.00004   0.00010
    Convergence for SD 004 x. Last residual and threshold:   0.00004   0.00010
    Convergence for PSO 001 . Last residual and threshold:   0.00001   0.00010
    Convergence for PSO 002 . Last residual and threshold:   0.00000   0.00010
    Convergence for PSO 003 . Last residual and threshold:   0.00001   0.00010
    Convergence for PSO 004 . Last residual and threshold:   0.00000   0.00010
    Convergence for MAGFLD.2. Last residual and threshold:   0.00001   0.00010
    Convergence for PSO 005 . Last residual and threshold:   0.00007   0.00010
    Convergence for PSO 006 . Last residual and threshold:   0.00002   0.00010
    Convergence for MAGFLD.1. Last residual and threshold:   0.00001   0.00010
    Convergence for PSO 007 . Last residual and threshold:   0.00004   0.00010
    Convergence for PSO 008 . Last residual and threshold:   0.00000   0.00010
    Convergence for PSO 009 . Last residual and threshold:   0.00001   0.00010
    Convergence for MAGFLD.3. Last residual and threshold:   0.00001   0.00010


                  **********************************************
                  *** ABACUS - Excitation energies (.EXCITA) ***
                  **********************************************

 >>>  Time used in EXCITA     is   2.94 seconds


   ***************************************************************************
   ************************ FINAL RESULTS from ABACUS ************************
   ***************************************************************************


 
     Date and time (Linux)  : Thu Dec 18 08:16:03 2014
     Host name              : nat-100219.local                        


                             Molecular geometry (au)
                             -----------------------

 O          0.0000000000            0.0000000000           -0.1231063545
 H   _1     0.0000000000            1.4300000000            0.9768936455
 H   _2     0.0000000000           -1.4300000000            0.9768936455





                        Molecular wave function and energy
                        ----------------------------------

     Spatial symmetry   1 ( A1  )
     Spin multiplicity  1
     2 * M_S            0
     State number       1
     Total charge       0

     Total energy        -76.3830515650 au (Hartrees)
                         -2078.48856326 eV
                           -200543.6710 kJ/mol
                            -47931.0877 kcal/mol


                   Scalar Breit-Pauli relativistic corrections
                   -------------------------------------------

     Darwin correction:                          0.1987572458 au
     Mass-velocity correction:                  -0.2502969189 au

     Total relativistic correction:             -0.0515396731 au (0.0675%)
     Non-relativistic + relativistic energy:   -76.4345912381 au



      (Note that these corrections are NOT included in the results below.)


                                  Dipole moment
                                  -------------

                 au               Debye          C m (/(10**-30)
              0.748785           1.903221           6.348463


                             Dipole moment components
                             ------------------------

                 au               Debye          C m (/(10**-30)

      z      0.74878492         1.90322130         6.34846289


   Units:   1 a.u. =   2.54175 Debye 
            1 a.u. =   8.47835 (10**-30) C m (SI)




@               Singlet electronic excitation energies
                --------------------------------------

               ========================================
                 Sym.   Mode   Frequency    Frequency
                ex. st.  No.      (au)         (eV)
               ----------------------------------------
                   1      1     0.364772     9.925958
                   1      2     0.623598    16.968962
               ----------------------------------------
               ----------------------------------------
               ----------------------------------------
               ========================================


  ******************************************************************************
  ************************ ABACUS - CHEMICAL SHIELDINGS ************************
  ******************************************************************************



                 Shielding tensors in symmetry coordinates (ppm)
                 -----------------------------------------------


    Symmetry 2
                       By

        O   y    363.32102969
        H   y     79.06248389
        H   z     13.16720599

    Symmetry 3
                       Bx

        O   x    328.43845516
        H   x     50.03101109

    Symmetry 4
                       Bz

        O   z    349.41736092
        H   y     18.15506568
        H   z     62.83985696




  Chemical shielding for O     :
  ==============================


  Shielding constant:    347.0589 ppm
  Anisotropy:            -27.9307 ppm
  Asymmetry:               0.7467    

  S parameter:            30.4156 ppm
  A parameter:             0.0000 ppm


  Total shielding tensor (ppm):
  -----------------------------

                    Bx             By             Bz

  O      x   328.43845516     0.00000000     0.00000000
  O      y     0.00000000   363.32102969     0.00000000
  O      z     0.00000000     0.00000000   349.41736092


  Diamagnetic and paramagnetic contributions (ppm):
  -------------------------------------------------

                 Bx         By         Bz            Bx         By         Bz

  O      x   392.2321     0.0000     0.0000      -63.7936     0.0000     0.0000
  O      y     0.0000   410.0417     0.0000        0.0000   -46.7207     0.0000
  O      z     0.0000     0.0000   387.1157        0.0000     0.0000   -37.6984

  Diamagnetic contribution:    396.463171         Paramagnetic:     -49.404222


  Antisymmetric and traceless symmetric parts (ppm):
  --------------------------------------------------

                 Bx         By         Bz            Bx         By         Bz

  O      x     0.0000     0.0000     0.0000      -18.6205     0.0000     0.0000
  O      y     0.0000     0.0000     0.0000        0.0000    16.2621     0.0000
  O      z     0.0000     0.0000     0.0000        0.0000     0.0000     2.3584


  Principal values and axes:
  --------------------------

  O         363.321030  =  347.06  +  16.26:     0.000000  1.000000  0.000000
  O         349.417361  =  347.06  +   2.36:     0.000000  0.000000  1.000000
  O         328.438455  =  347.06  -  18.62:     1.000000  0.000000  0.000000


  Chemical shielding for H   _1:
  ==============================


  Shielding constant:     31.9889 ppm
  Anisotropy:             18.4578 ppm
  Asymmetry:               0.1334    

  S parameter:            18.5125 ppm
  A parameter:             1.2470 ppm


  Total shielding tensor (ppm):
  -----------------------------

                    Bx             By             Bz

  H   _1 x    25.01550554     0.00000000     0.00000000
  H   _1 y     0.00000000    39.53124194     9.07753284
  H   _1 z     0.00000000     6.58360299    31.41992848


  Diamagnetic and paramagnetic contributions (ppm):
  -------------------------------------------------

                 Bx         By         Bz            Bx         By         Bz

  H   _1 x    13.0493     0.0000     0.0000       11.9662     0.0000     0.0000
  H   _1 y     0.0000    35.6756    17.3399        0.0000     3.8556    -8.2624
  H   _1 z     0.0000    15.3685    23.2237        0.0000    -8.7849     8.1963

  Diamagnetic contribution:     23.982865         Paramagnetic:       8.006027


  Antisymmetric and traceless symmetric parts (ppm):
  --------------------------------------------------

                 Bx         By         Bz            Bx         By         Bz

  H   _1 x     0.0000     0.0000     0.0000       -6.9734     0.0000     0.0000
  H   _1 y     0.0000     0.0000     1.2470        0.0000     7.5423     7.8306
  H   _1 z     0.0000    -1.2470     0.0000        0.0000     7.8306    -0.5690


  Principal values and axes:
  --------------------------

  H   _1     25.015506  =   31.99  -   6.97:     1.000000  0.000000  0.000000
  H   _1     26.657074  =   31.99  -   5.33:     0.000000 -0.519662  0.854372
  H   _1     44.294097  =   31.99  +  12.31:     0.000000  0.854372  0.519662


  Chemical shielding for H   _2:
  ==============================


  Shielding constant:     31.9889 ppm
  Anisotropy:             18.4578 ppm
  Asymmetry:               0.1334    

  S parameter:            18.5125 ppm
  A parameter:             1.2470 ppm


  Total shielding tensor (ppm):
  -----------------------------

                    Bx             By             Bz

  H   _2 x    25.01550554     0.00000000     0.00000000
  H   _2 y     0.00000000    39.53124194    -9.07753284
  H   _2 z     0.00000000    -6.58360299    31.41992848


  Diamagnetic and paramagnetic contributions (ppm):
  -------------------------------------------------

                 Bx         By         Bz            Bx         By         Bz

  H   _2 x    13.0493     0.0000     0.0000       11.9662     0.0000     0.0000
  H   _2 y     0.0000    35.6756   -17.3399        0.0000     3.8556     8.2624
  H   _2 z     0.0000   -15.3685    23.2237        0.0000     8.7849     8.1963

  Diamagnetic contribution:     23.982865         Paramagnetic:       8.006027


  Antisymmetric and traceless symmetric parts (ppm):
  --------------------------------------------------

                 Bx         By         Bz            Bx         By         Bz

  H   _2 x     0.0000     0.0000     0.0000       -6.9734     0.0000     0.0000
  H   _2 y     0.0000     0.0000    -1.2470        0.0000     7.5423    -7.8306
  H   _2 z     0.0000     1.2470     0.0000        0.0000    -7.8306    -0.5690


  Principal values and axes:
  --------------------------

  H   _2     25.015506  =   31.99  -   6.97:     1.000000  0.000000  0.000000
  H   _2     26.657074  =   31.99  -   5.33:     0.000000  0.519662  0.854372
  H   _2     44.294097  =   31.99  +  12.31:     0.000000  0.854372 -0.519662


                         +--------------------------------+
                         ! Summary of chemical shieldings !
                         +--------------------------------+

@1  Definitions from J. Mason, Solid state Nuc. Magn. Res. 2 (1993), 285

@1 London orbitals (GIAOs) has been used.

@1 atom   shielding       dia      para     skew      span     (aniso     asym)
@1 ----------------------------------------------------------------------------
@1 O       347.0589  396.4632  -49.4042   -0.2028   34.8826   24.3931    1.2901
@1 H   _1   31.9889   23.9829    8.0060    0.8297   19.2786   18.4578    0.1334
@1 H   _2   31.9889   23.9829    8.0060    0.8297   19.2786   18.4578    0.1334



                         +--------------------------------+
                         ! Summary of chemical shieldings !
                         +--------------------------------+

@2  Definitions from Smith, Palke, and Grieg, Concepts in Mag. Res. 4 (1992), 107

@2 London orbitals (GIAOs) has been used.

@2 atom   shielding       dia      para     aniso      asym        S        A
@2 ----------------------------------------------------------------------------
@2 O       347.0589  396.4632  -49.4042  -27.9307    0.7467   30.4156    0.0000
@2 H   _1   31.9889   23.9829    8.0060   18.4578    0.1334   18.5125    1.2470
@2 H   _2   31.9889   23.9829    8.0060   18.4578    0.1334   18.5125    1.2470



 *******************************************************************************
 **************** ABACUS - INDIRECT NUCLEAR SPIN-SPIN COUPLINGS ****************
 *******************************************************************************

 Definitions from Smith, Palke, and Grieg, Concepts in Mag. Res. 4 (1992) 107



                       +------------------------------------+
                       ! ABACUS - Final spin-spin couplings !
                       +------------------------------------+



              Indirect spin-spin coupling between H   _2 and H   _1:
              ======================================================


  Mass number atom 1:    1;   Abundance:  99.985 %;   g factor:   5.585694
  Mass number atom 2:    1;   Abundance:  99.985 %;   g factor:   5.585694

  Isotropic coupling        :     -2.6215 Hz
  Anisotropic coupling      :    -36.7740 Hz
  Asymmetry                 :     -0.0891   
  S parameter               :     36.8226 Hz
  A parameter               :      6.2015 Hz
  Isotropic DSO contribution:     -7.1975 Hz
  Isotropic PSO contribution:      7.6125 Hz
  Isotropic SD contribution :      0.7621 Hz
  Isotropic FC contribution :     -3.7986 Hz




                           Total Coupling Tensor in Hz
                           ---------------------------

                             x              y              z

                x   -27.13751       0.000000       0.000000    
                y    0.000000       10.72832      -6.201495    
                z    0.000000       6.201495       8.544689    


   Interatomic separations (in Angstrom):
   --------------------------------------

            O           H   _1      H   _2
            ------      ------      ------
 O     :    0.000000
 H   _1:    0.954707    0.000000
 H   _2:    0.954707    1.513447    0.000000


  Max    interatomic separation is    1.5134 Angstrom (    2.8600 Bohr)
  between atoms    3 and    2, "H   _2" and "H   _1".

  Min HX interatomic separation is    0.9547 Angstrom (    1.8041 Bohr)


  Bond distances (Angstrom):
  --------------------------

                  atom 1     atom 2       distance
                  ------     ------       --------
  bond distance:  H   _1     O            0.954707
  bond distance:  H   _2     O            0.954707


  Bond angles (degrees):
  ----------------------

                  atom 1     atom 2     atom 3         angle
                  ------     ------     ------         -----
  bond angle:     H   _1     O          H   _2       104.863




 CPU time statistics for ABACUS
 ------------------------------

 EXCITA     00:00:03       7 %
 LINRES     00:00:16      37 %
 TRP LR     00:00:24      54 %
 REST       00:00:01       2 %

 TOTAL      00:00:45     100 %


 >>>> Total CPU  time used in ABACUS:  45.00 seconds
 >>>> Total wall time used in ABACUS:  45.18 seconds


                   .-------------------------------------------.
                   | End of Static Property Section (ABACUS) - |
                   `-------------------------------------------'

 >>>> Total CPU  time used in DALTON:  48.61 seconds
 >>>> Total wall time used in DALTON:  49.01 seconds

 
     Date and time (Linux)  : Thu Dec 18 08:16:03 2014
     Host name              : nat-100219.local                        
