

     ************************************************************************
     *************** Dalton - An Electronic Structure Program ***************
     ************************************************************************

    This is output from DALTON (Release Dalton2013 patch 0)
   ----------------------------------------------------------------------------
    NOTE:
     
    Dalton is an experimental code for the evaluation of molecular
    properties using (MC)SCF, DFT, CI, and CC wave functions.
    The authors accept no responsibility for the performance of
    the code or for the correctness of the results.
     
    The code (in whole or part) is provided under a licence and
    is not to be reproduced for further distribution without
    the written permission of the authors or their representatives.
     
    See the home page "http://daltonprogram.org" for further information.
     
    If results obtained with this code are published,
    the appropriate citations would be both of:
     
       K. Aidas, C. Angeli, K. L. Bak, V. Bakken, R. Bast,
       L. Boman, O. Christiansen, R. Cimiraglia, S. Coriani,
       P. Dahle, E. K. Dalskov, U. Ekstroem, T. Enevoldsen,
       J. J. Eriksen, P. Ettenhuber, B. Fernandez, L. Ferrighi,
       H. Fliegl, L. Frediani, K. Hald, A. Halkier, C. Haettig,
       H. Heiberg, T. Helgaker, A. C. Hennum, H. Hettema,
       E. Hjertenaes, S. Hoest, I.-M. Hoeyvik, M. F. Iozzi,
       B. Jansik, H. J. Aa. Jensen, D. Jonsson, P. Joergensen,
       J. Kauczor, S. Kirpekar, T. Kjaergaard, W. Klopper,
       S. Knecht, R. Kobayashi, H. Koch, J. Kongsted, A. Krapp,
       K. Kristensen, A. Ligabue, O. B. Lutnaes, J. I. Melo,
       K. V. Mikkelsen, R. H. Myhre, C. Neiss, C. B. Nielsen,
       P. Norman, J. Olsen, J. M. H. Olsen, A. Osted,
       M. J. Packer, F. Pawlowski, T. B. Pedersen, P. F. Provasi,
       S. Reine, Z. Rinkevicius, T. A. Ruden, K. Ruud, V. Rybkin,
       P. Salek, C. C. M. Samson, A. Sanchez de Meras, T. Saue,
       S. P. A. Sauer, B. Schimmelpfennig, K. Sneskov,
       A. H. Steindal, K. O. Sylvester-Hvid, P. R. Taylor,
       A. M. Teale, E. I. Tellgren, D. P. Tew, A. J. Thorvaldsen,
       L. Thoegersen, O. Vahtras, M. A. Watson, D. J. D. Wilson,
       M. Ziolkowski and H. Agren.
       The Dalton quantum chemistry program system.
       WIREs Comput. Mol. Sci. 2013. doi: 10.1002/wcms.1172
    
    and
    
       Dalton, a Molecular Electronic Structure Program,
       Release DALTON2013.0 (2013), see http://daltonprogram.org
   ----------------------------------------------------------------------------

    Authors in alphabetical order (major contribution(s) in parenthesis):

  Kestutis Aidas,           Vilnius University,           Lithuania   (QM/MM)
  Celestino Angeli,         University of Ferrara,        Italy       (NEVPT2)
  Keld L. Bak,              UNI-C,                        Denmark     (AOSOPPA, non-adiabatic coupling, magnetic properties)
  Vebjoern Bakken,          University of Oslo,           Norway      (DALTON; geometry optimizer, symmetry detection)
  Radovan Bast,             KTH Stockholm                 Sweden      (DALTON installation and execution frameworks)
  Linus Boman,              NTNU,                         Norway      (Cholesky decomposition and subsystems)
  Ove Christiansen,         Aarhus University,            Denmark     (CC module)
  Renzo Cimiraglia,         University of Ferrara,        Italy       (NEVPT2)
  Sonia Coriani,            University of Trieste,        Italy       (CC module, MCD in RESPONS)
  Paal Dahle,               University of Oslo,           Norway      (Parallelization)
  Erik K. Dalskov,          UNI-C,                        Denmark     (SOPPA)
  Thomas Enevoldsen,        Univ. of Southern Denmark,    Denmark     (SOPPA)
  Janus J. Eriksen,         Aarhus University,            Denmark     (PE-MP2/SOPPA, TDA)
  Berta Fernandez,          U. of Santiago de Compostela, Spain       (doublet spin, ESR in RESPONS)
  Lara Ferrighi,            Aarhus University,            Denmark     (PCM Cubic response)
  Heike Fliegl,             University of Oslo,           Norway      (CCSD(R12))
  Luca Frediani,            UiT The Arctic U. of Norway,  Norway      (PCM)
  Bin Gao,                  UiT The Arctic U. of Norway,  Norway      (Gen1Int library)
  Christof Haettig,         Ruhr-University Bochum,       Germany     (CC module)
  Kasper Hald,              Aarhus University,            Denmark     (CC module)
  Asger Halkier,            Aarhus University,            Denmark     (CC module)
  Hanne Heiberg,            University of Oslo,           Norway      (geometry analysis, selected one-electron integrals)
  Trygve Helgaker,          University of Oslo,           Norway      (DALTON; ABACUS, ERI, DFT modules, London, and much more)
  Alf Christian Hennum,     University of Oslo,           Norway      (Parity violation)
  Hinne Hettema,            University of Auckland,       New Zealand (quadratic response in RESPONS; SIRIUS supersymmetry)
  Eirik Hjertenaes,         NTNU,                         Norway      (Cholesky decomposition)
  Maria Francesca Iozzi,    University of Oslo,           Norway      (RPA)
  Brano Jansik              Technical Univ. of Ostrava    Czech Rep.  (DFT cubic response)
  Hans Joergen Aa. Jensen,  Univ. of Southern Denmark,    Denmark     (DALTON; SIRIUS, RESPONS, ABACUS modules, London, and much more)
  Dan Jonsson,              UiT The Arctic U. of Norway,  Norway      (cubic response in RESPONS module)
  Poul Joergensen,          Aarhus University,            Denmark     (RESPONS, ABACUS, and CC modules)
  Joanna Kauczor,           Linkoeping University,        Sweden      (Complex polarization propagator (CPP) module)
  Sheela Kirpekar,          Univ. of Southern Denmark,    Denmark     (Mass-velocity & Darwin integrals)
  Wim Klopper,              KIT Karlsruhe,                Germany     (R12 code in CC, SIRIUS, and ABACUS modules)
  Stefan Knecht,            ETH Zurich,                   Switzerland (Parallel CI and MCSCF)
  Rika Kobayashi,           Australian National Univ.,    Australia   (DIIS in CC, London in MCSCF)
  Henrik Koch,              NTNU,                         Norway      (CC module, Cholesky decomposition)
  Jacob Kongsted,           Univ. of Southern Denmark,    Denmark     (Polarizable embedding, QM/MM)
  Andrea Ligabue,           University of Modena,         Italy       (CTOCD, AOSOPPA)
  Ola B. Lutnaes,           University of Oslo,           Norway      (DFT Hessian)
  Juan I. Melo,             University of Buenos Aires,   Argentina   (LRESC, Relativistic Effects on NMR Shieldings)
  Kurt V. Mikkelsen,        University of Copenhagen,     Denmark     (MC-SCRF and QM/MM)
  Rolf H. Myhre,            NTNU,                         Norway      (Cholesky, subsystems and ECC2)
  Christian Neiss,          Univ. Erlangen-Nuernberg,     Germany     (CCSD(R12))
  Christian B. Nielsen,     University of Copenhagen,     Denmark     (QM/MM)
  Patrick Norman,           Linkoeping University,        Sweden      (Cubic response and complex response in RESPONS)
  Jeppe Olsen,              Aarhus University,            Denmark     (SIRIUS CI/density modules)
  Jogvan Magnus H. Olsen,   Univ. of Southern Denmark,    Denmark     (Polarizable embedding, PE library, QM/MM)
  Anders Osted,             Copenhagen University,        Denmark     (QM/MM)
  Martin J. Packer,         University of Sheffield,      UK          (SOPPA)
  Filip Pawlowski,          Kazimierz Wielki University   Poland      (CC3)
  Thomas B. Pedersen,       University of Oslo,           Norway      (Cholesky decomposition)
  Patricio F. Provasi,      University of Northeastern,   Argentina   (Analysis of coupling constants in localized orbitals)
  Zilvinas Rinkevicius,     KTH Stockholm,                Sweden      (open-shell DFT, ESR)
  Elias Rudberg,            KTH Stockholm,                Sweden      (DFT grid and basis info)
  Torgeir A. Ruden,         University of Oslo,           Norway      (Numerical derivatives in ABACUS)
  Kenneth Ruud,             UiT The Arctic U. of Norway,  Norway      (DALTON; ABACUS magnetic properties and  much more)
  Pawel Salek,              KTH Stockholm,                Sweden      (DALTON; DFT code)
  Claire C. M. Samson       University of Karlsruhe       Germany     (Boys localization, r12 integrals in ERI)
  Alfredo Sanchez de Meras, University of Valencia,       Spain       (CC module, Cholesky decomposition)
  Trond Saue,               Paul Sabatier University,     France      (direct Fock matrix construction)
  Stephan P. A. Sauer,      University of Copenhagen,     Denmark     (SOPPA(CCSD), SOPPA prop., AOSOPPA, vibrational g-factors)
  Bernd Schimmelpfennig,    Forschungszentrum Karlsruhe,  Germany     (AMFI module)
  Kristian Sneskov,         Aarhus University,            Denmark     (QM/MM, PE-CC)
  Arnfinn H. Steindal,      UiT The Arctic U. of Norway,  Norway      (parallel QM/MM)
  K. O. Sylvester-Hvid,     University of Copenhagen,     Denmark     (MC-SCRF)
  Peter R. Taylor,          VLSCI/Univ. of Melbourne,     Australia   (Symmetry handling ABACUS, integral transformation)
  Andrew M. Teale,          University of Nottingham,     England     (DFT-AC, DFT-D)
  David P. Tew,             University of Bristol,        England     (CCSD(R12))
  Olav Vahtras,             KTH Stockholm,                Sweden      (triplet response, spin-orbit, ESR, TDDFT, open-shell DFT)
  David J. Wilson,          La Trobe University,          Australia   (DFT Hessian and DFT magnetizabilities)
  Hans Agren,               KTH Stockholm,                Sweden      (SIRIUS module, RESPONS, MC-SCRF solvation model)
 --------------------------------------------------------------------------------

     Date and time (Linux)  : Sun Sep  8 21:09:14 2013
     Host name              : lpqlx131.ups-tlse.fr                    

 * Work memory size             :    64000000 =  488.28 megabytes.

 * Directories for basis set searches:
   1) /home/bast/DALTON-2013.0-Source/build/test_cc2_r12_aux_h2o_sym_a3
   2) /home/bast/DALTON-2013.0-Source/build/basis


Compilation information
-----------------------

 Who compiled             | bast
 Host                     | lpqlx131.ups-tlse.fr
 System                   | Linux-3.8.5-201.fc18.x86_64
 CMake generator          | Unix Makefiles
 Processor                | x86_64
 64-bit integers          | OFF
 MPI                      | OFF
 Fortran compiler         | /usr/bin/gfortran
 Fortran compiler version | GNU Fortran (GCC) 4.7.2 20121109 (Red Hat 4.7.2-8)
 C compiler               | /usr/bin/gcc
 C compiler version       | gcc (GCC) 4.7.2 20121109 (Red Hat 4.7.2-8)
 C++ compiler             | /usr/bin/g++
 C++ compiler version     | g++ (GCC) 4.7.2 20121109 (Red Hat 4.7.2-8)
 Static linking           | OFF
 Last Git revision        | f34203295a86316e27f9e7b44f9b6769c4a046c0
 Configuration time       | 2013-09-08 20:31:27.952056


   Content of the .dal input file
 ----------------------------------

**DALTON INPUT                                    
.RUN WAVE FUNCTION                                
*MOLBAS                                           
.R12AUX                                           
**INTEGRALS                                       
.R12                                              
**WAVE FUNCTION                                   
.CC                                               
*ORBITAL INPUT                                    
.MOSTART                                          
 H1DIAG                                           
.R12ORB                                           
 1 0 0 0                                          
*SCF INPUT                                        
.THRESH                                           
 1.0D-10                                          
*CC INPUT                                         
.CC2                                              
.PRINT                                            
 3                                                
.FREEZE                                           
 1 0                                              
.THRENR                                           
 1.0D-12                                          
.MAX IT                                           
 100                                              
*CCEXCI                                           
.THREXC                                           
 1.D-10                                           
.NCCEXCI                                          
 4 4 4 4                                          
*R12 INPUT                                        
.NO HYB                                           
.CC2                                              
 3B                                               
**END OF DALTON INPUT                             


   Content of the .mol file
 ----------------------------

BASIS                                                                          
6-311G 6-311++G**                                                              
H2O with symmetry                                                              
                                                                               
    4    2 X Z                                                                 
 1      8.    1                                                                
O     0.0 -0.2249058930 0.0                                                    
 1      1.    1                                                                
H     1.45235 0.899623 0.0                                                     
 2      8.    1                                                                
O     0.0 -0.2249058930 0.0                                                    
 2      1.    1                                                                
H     1.45235 0.899623 0.0                                                     


       *******************************************************************
       *********** Output from DALTON general input processing ***********
       *******************************************************************

 --------------------------------------------------------------------------------
   Overall default print level:    0
   Print level for DALTON.STAT:    1

    HERMIT 1- and 2-electron integral sections will be executed
    "Old" integral transformation used (limited to max 255 basis functions)
    Wave function sections will be executed (SIRIUS module)
 --------------------------------------------------------------------------------


 Changes of defaults for *MOLBAS:
 --------------------------------

 Print level in molecule setup (READIN):    1

 .R12AUX: Reading auxiliary basis sets from .mol file for R12



   ****************************************************************************
   *************** Output of molecule and basis set information ***************
   ****************************************************************************


    The two title cards from your ".mol" input:
    ------------------------------------------------------------------------
 1: H2O with symmetry                                                       
 2:                                                                         
    ------------------------------------------------------------------------

  Atomic type no.    1
  --------------------
  Nuclear charge:   8.00000
  Number of symmetry independent centers:    1
  Number of basis sets to read;    1
  Basis set file used for this atomic type with Z =   8 :
     "/home/bast/DALTON-2013.0-Source/build/basis/6-311G"

  Atomic type no.    2
  --------------------
  Nuclear charge:   1.00000
  Number of symmetry independent centers:    1
  Number of basis sets to read;    1
  Basis set file used for this atomic type with Z =   1 :
     "/home/bast/DALTON-2013.0-Source/build/basis/6-311G"

  Atomic type no.    3
  --------------------
  Nuclear charge:   8.00000
  Number of symmetry independent centers:    1
  This is an auxiliary basis for R12, MBSI:    2
  Basis set file used for this atomic type with Z =   8 :
     "/home/bast/DALTON-2013.0-Source/build/basis/6-311++G**"

  Info about the basis set file: your basis has no documentation.
  Basis set: 6-311++G**                                                                      

  Atomic type no.    4
  --------------------
  Nuclear charge:   1.00000
  Number of symmetry independent centers:    1
  This is an auxiliary basis for R12, MBSI:    2
  Basis set file used for this atomic type with Z =   1 :
     "/home/bast/DALTON-2013.0-Source/build/basis/6-311++G**"

  Info about the basis set file: your basis has no documentation.
  Basis set: 6-311++G**                                                                      


                         SYMGRP: Point group information
                         -------------------------------

Point group: C2v

   * The point group was generated by:

      Reflection in the yz-plane
      Reflection in the xy-plane

   * Group multiplication table

        |  E   C2y  Oxy  Oyz
   -----+--------------------
     E  |  E   C2y  Oxy  Oyz
    C2y | C2y   E   Oyz  Oxy
    Oxy | Oxy  Oyz   E   C2y
    Oyz | Oyz  Oxy  C2y   E 

   * Character table

        |  E   C2y  Oxy  Oyz
   -----+--------------------
    A1  |   1    1    1    1
    B2  |   1   -1    1   -1
    B1  |   1   -1   -1    1
    A2  |   1    1   -1   -1

   * Direct product table

        | A1   B2   B1   A2 
   -----+--------------------
    A1  | A1   B2   B1   A2 
    B2  | B2   A1   A2   B1 
    B1  | B1   A2   A1   B2 
    A2  | A2   B1   B2   A1 


                                 Isotopic Masses
                                 ---------------

                           O          15.994915
                           H   _1      1.007825
                           H   _2      1.007825
                           O           0.000000
                           H   _1      0.000000
                           H   _2      0.000000

                       Total mass:    18.010565 amu
                       Natural abundance:   0.000 %

 Center-of-mass coordinates (a.u.):    0.000000   -0.099054    0.000000


  Atoms and basis sets
  --------------------

  Number of atom types :    4
  Total number of atoms:    6

  Basis set 1 refers to the basis "6-311G" from the basis set library.

  Basis set 2 refers to the basis "6-311++G**" from the basis set library.

  label  basis   atoms  charge   prim  cont     basis
  ------------------------------------------------------------------------------
  O        1       1    8.0000    26    13      [11s5p|4s3p]                                       
  H        1       2    1.0000     5     3      [5s|3s]                                            
  O        2       1    0.0000    35    22      [12s6p1d|5s4p1d]                                   
  H        2       2    0.0000     9     7      [6s1p|4s1p]                                        
  ------------------------------------------------------------------------------
  total:           6   10.0000    89    55
  ------------------------------------------------------------------------------
  Spherical harmonic basis used.

  Threshold for neglecting AO integrals:  1.00D-12


  Cartesian Coordinates (a.u.)
  ----------------------------

  Total number of coordinates:   18
  O       :     1  x   0.0000000000    2  y  -0.2249058930    3  z   0.0000000000
  H   / 1 :     4  x   1.4523500000    5  y   0.8996230000    6  z   0.0000000000
  H   / 2 :     7  x  -1.4523500000    8  y   0.8996230000    9  z   0.0000000000
  O       :    10  x   0.0000000000   11  y  -0.2249058930   12  z   0.0000000000
  H   / 1 :    13  x   1.4523500000   14  y   0.8996230000   15  z   0.0000000000
  H   / 2 :    16  x  -1.4523500000   17  y   0.8996230000   18  z   0.0000000000


  Symmetry Coordinates
  --------------------

  Number of coordinates in each symmetry:     6    6    4    2

  Symmetry  A1  ( 1)

    1   O     y    2
    2   H     x    [  4  -    7 ]/2
    3   H     y    [  5  +    8 ]/2
    4   O     y   11
    5   H     x    [ 13  -   16 ]/2
    6   H     y    [ 14  +   17 ]/2

  Symmetry  B2  ( 2)

    7   O     x    1
    8   H     x    [  4  +    7 ]/2
    9   H     y    [  5  -    8 ]/2
   10   O     x   10
   11   H     x    [ 13  +   16 ]/2
   12   H     y    [ 14  -   17 ]/2

  Symmetry  B1  ( 3)

   13   O     z    3
   14   H     z    [  6  +    9 ]/2
   15   O     z   12
   16   H     z    [ 15  +   18 ]/2

  Symmetry  A2  ( 4)

   17   H     z    [  6  -    9 ]/2
   18   H     z    [ 15  -   18 ]/2


   Interatomic separations (in Angstrom):
   --------------------------------------

            O           H   _1      H   _2      O           H   _1      H   _2
            ------      ------      ------      ------      ------      ------
 O     :    0.000000
 H   _1:    0.972000    0.000000
 H   _2:    0.972000    1.537101    0.000000
 O     :    0.000000    0.972000    0.972000    0.000000
 H   _1:    0.972000    0.000000    1.537101    0.972000    0.000000
 H   _2:    0.972000    1.537101    0.000000    0.972000    1.537101    0.000000


  Max    interatomic separation is    1.5371 Angstrom (    2.9047 Bohr)
  between atoms    3 and    2, "H   _2" and "H   _1".

  Min HX interatomic separation is    0.0000 Angstrom (    0.0000 Bohr)

  Min YX interatomic separation is    0.0000 Angstrom (    0.0000 Bohr)

WARNING: Number of short HX and YX bond lengths:    2    5
WARNING: If not intentional, maybe your coordinates were in Angstrom,
WARNING: but "Angstrom" was not specified in .mol file


  Bond distances (Angstrom):
  --------------------------

                  atom 1     atom 2       distance
                  ------     ------       --------
  bond distance:  H   _1     O            0.972000
  bond distance:  H   _2     O            0.972000


  Bond angles (degrees):
  ----------------------

                  atom 1     atom 2     atom 3         angle
                  ------     ------     ------         -----
  bond angle:     H   _1     O          H   _2       104.500




 Principal moments of inertia (u*A**2) and principal axes
 --------------------------------------------------------

   IA       0.633889          1.000000    0.000000    0.000000
   IB       1.190584          0.000000    1.000000    0.000000
   IC       1.824473          0.000000    0.000000    1.000000


 Rotational constants
 --------------------

 The molecule is planar.

               A                   B                   C

         797267.3370         424479.9976         277000.0210 MHz
           26.593976           14.159129            9.239726 cm-1


@  Nuclear repulsion energy :    9.055004525638 Hartree


  Symmetry Orbitals
  -----------------

  Number of orbitals in each symmetry:          27   17    9    2

  Number of main orbitals in each symmetry:          10    6    3    0
  Number of auxiliary functions in each symmetry:    17   11    6    2


  Symmetry  A1 ( 1)

    1     O    M   1s         1
    2     O    M   1s         2
    3     O    M   1s         3
    4     O    M   1s         4
    5     O    M   2py        6
    6     O    M   2py        9
    7     O    M   2py       12
    8     H    M   1s        14 +   15
    9     H    M   1s        16 +   17
   10     H    M   1s        18 +   19
   11     O    A   1s        20
   12     O    A   1s        21
   13     O    A   1s        22
   14     O    A   1s        23
   15     O    A   1s        24
   16     O    A   2py       26
   17     O    A   2py       29
   18     O    A   2py       32
   19     O    A   2py       35
   20     O    A   3d0       39
   21     O    A   3d2+      41
   22     H    A   1s        42 +   43
   23     H    A   1s        44 +   45
   24     H    A   1s        46 +   47
   25     H    A   1s        48 +   49
   26     H    A   2px       50 -   51
   27     H    A   2py       52 +   53


  Symmetry  B2 ( 2)

   28     O    M   2px        5
   29     O    M   2px        8
   30     O    M   2px       11
   31     H    M   1s        14 -   15
   32     H    M   1s        16 -   17
   33     H    M   1s        18 -   19
   34     O    A   2px       25
   35     O    A   2px       28
   36     O    A   2px       31
   37     O    A   2px       34
   38     O    A   3d2-      37
   39     H    A   1s        42 -   43
   40     H    A   1s        44 -   45
   41     H    A   1s        46 -   47
   42     H    A   1s        48 -   49
   43     H    A   2px       50 +   51
   44     H    A   2py       52 -   53


  Symmetry  B1 ( 3)

   45     O    M   2pz        7
   46     O    M   2pz       10
   47     O    M   2pz       13
   48     O    A   2pz       27
   49     O    A   2pz       30
   50     O    A   2pz       33
   51     O    A   2pz       36
   52     O    A   3d1-      38
   53     H    A   2pz       54 +   55


  Symmetry  A2 ( 4)

   54     O    A   3d1+      40
   55     H    A   2pz       54 -   55

  Number of floating/multiple basis set orbitals :    3

  Symmetries of electric field:  B2 (2)  A1 (1)  B1 (3)

  Symmetries of magnetic field:  B1 (3)  A2 (4)  B2 (2)


                     .---------------------------------------.
                     | Starting in Integral Section (HERMIT) |
                     `---------------------------------------'



    *************************************************************************
    ****************** Output from HERMIT input processing ******************
    *************************************************************************


 Default print level:        1

 * Nuclear model: Point charge

 Calculation of one- and two-electron Hamiltonian integrals.

 The following one-electron property integrals are calculated as requested:
          - overlap integrals
          - Cartesian multipole moment integrals of orders 2 and lower

 Center of mass  (bohr):      0.000000000000     -0.099054390664      0.000000000000
 Operator center (bohr):      0.000000000000      0.000000000000      0.000000000000
 Gauge origin    (bohr):      0.000000000000      0.000000000000      0.000000000000
 Dipole origin   (bohr):      0.000000000000      0.000000000000      0.000000000000


     ************************************************************************
     ************************** Output from HERINT **************************
     ************************************************************************


 Threshold for neglecting two-electron integrals:  1.00D-12
 Number of two-electron integrals written:        5362 (  0.5% )
 Megabytes written:                              0.062

 >>>> Total CPU  time used in HERMIT:   0.03 seconds
 >>>> Total wall time used in HERMIT:   0.03 seconds


                        .----------------------------------.
                        | End of Integral Section (HERMIT) |
                        `----------------------------------'



                   .--------------------------------------------.
                   | Starting in Wave Function Section (SIRIUS) |
                   `--------------------------------------------'

 NCCEXCI for singlet:           4           4           4           4

 >>>> Detected R12 input:
 Direct Fock matrix formation switched on!
 Scale factors for CC excitations manifolds:
 for bra states (projection manifold):   1.0000000000000000     
 for ket states (operator manifold)  :   1.0000000000000000     

 **********************************************************************
 *SIRIUS* a direct, restricted step, second order MCSCF program       *
 **********************************************************************

 
     Date and time (Linux)  : Sun Sep  8 21:09:15 2013
     Host name              : lpqlx131.ups-tlse.fr                    

 Title lines from ".mol" input file:
     H2O with symmetry                                                       
                                                                             

 Print level on unit LUPRI =   2 is   0
 Print level on unit LUW4  =   2 is   5

@    (Integral direct) CC calculation.

@    This is a combination run starting with
@              a restricted, closed shell Hartree-Fock calculation

 Fock matrices are calculated directly without use of integrals on disk.

 Initial molecular orbitals are obtained according to
 ".MOSTART H1DIAG" input option

     Wave function specification
     ============================

     For the specification of the Coupled Cluster: see later.

@    For the wave function of type :      >>> CC <<<
@    Number of closed shell electrons          10
@    Number of electrons in active shells       0
@    Total charge of the molecule               0

@    Spin multiplicity and 2 M_S                1         0
     Total number of symmetries                 4
@    Reference state symmetry                   1

     Orbital specifications
     ======================
     Abelian symmetry species          All |    1    2    3    4
                                       --- |  ---  ---  ---  ---
     Total number of orbitals           19 |   10    6    3    0
     Number of basis functions          55 |   27   17    9    2

      ** Automatic occupation of RHF orbitals **

      -- Initial occupation of symmetries is determined from diagonal of H1 matrix.           
      -- Initial occupation of symmetries is :
@    Occupied SCF orbitals               5 |    3    1    1    0

     Maximum number of Fock   iterations      0
     Maximum number of DIIS   iterations     60
     Maximum number of QC-SCF iterations     60
     Threshold for SCF convergence     1.00D-10


 Changes of defaults for CC:
 ---------------------------


 -Implicit frozen core calculation
 -Excitation energies calculated
  


 >>>>> DIIS optimization of Hartree-Fock <<<<<

 C1-DIIS algorithm; max error vectors =   10

 Automatic occupation of symmetries with  10 electrons.

 Iter     Total energy    Error norm  Delta(E)    SCF occupation
 -----------------------------------------------------------------------------
   1  Screening settings (-IFTHRS, DIFDEN)   -7    T

***  INFO  GETGAB: GABAOXXX not found on AOPROPER. Regenerating.
@  1  -61.9064868849       2.30D+01  -6.19D+01     3   1   1   0
      Virial theorem: -V/T =      1.513486
@      MULPOP O      -1.89; H   _1  0.95; H   _2  0.95; 
 -----------------------------------------------------------------------------
   2  Screening settings (-IFTHRS, DIFDEN)   -7    T
@  2  -67.5183719652       8.24D+00  -5.61D+00     3   2   0   0
      Virial theorem: -V/T =      2.101881
@      MULPOP O       5.53; H   _1 -2.77; H   _2 -2.77; 
 -----------------------------------------------------------------------------
   3  Screening settings (-IFTHRS, DIFDEN)   -7    T
@  3  -73.7989315582       7.48D+00  -6.28D+00     3   1   1   0
      Virial theorem: -V/T =      1.837753
@      MULPOP O      -1.68; H   _1  0.84; H   _2  0.84; 
 -----------------------------------------------------------------------------
   4  Screening settings (-IFTHRS, DIFDEN)   -7    T
@  4  -75.6877048599       2.59D+00  -1.89D+00     3   1   1   0
      Virial theorem: -V/T =      1.948019
@      MULPOP O      -1.30; H   _1  0.65; H   _2  0.65; 
 -----------------------------------------------------------------------------
   5  Screening settings (-IFTHRS, DIFDEN)   -7    T
@  5  -76.0063796622       1.33D-01  -3.19D-01     3   1   1   0
      Virial theorem: -V/T =      1.999631
@      MULPOP O      -0.88; H   _1  0.44; H   _2  0.44; 
 -----------------------------------------------------------------------------
   6  Screening settings (-IFTHRS, DIFDEN)   -7    T
@  6  -76.0082538736       7.29D-02  -1.87D-03     3   1   1   0
      Virial theorem: -V/T =      2.001202
@      MULPOP O      -0.80; H   _1  0.40; H   _2  0.40; 
 -----------------------------------------------------------------------------
   7  Screening settings (-IFTHRS, DIFDEN)   -9    F
@  7  -76.0085436998       8.05D-03  -2.90D-04     3   1   1   0
      Virial theorem: -V/T =      1.999713
@      MULPOP O      -0.79; H   _1  0.40; H   _2  0.40; 
 -----------------------------------------------------------------------------
   8  Screening settings (-IFTHRS, DIFDEN)   -9    T
@  8  -76.0085548901       1.45D-03  -1.12D-05     3   1   1   0
      Virial theorem: -V/T =      1.999736
@      MULPOP O      -0.79; H   _1  0.40; H   _2  0.40; 
 -----------------------------------------------------------------------------
   9  Screening settings (-IFTHRS, DIFDEN)   -9    T
@  9  -76.0085552884       2.64D-04  -3.98D-07     3   1   1   0
      Virial theorem: -V/T =      1.999736
@      MULPOP O      -0.79; H   _1  0.40; H   _2  0.40; 
 -----------------------------------------------------------------------------
  10  Screening settings (-IFTHRS, DIFDEN)  -11    F
@ 10  -76.0085552985       6.66D-05  -1.01D-08     3   1   1   0
      Virial theorem: -V/T =      1.999736
@      MULPOP O      -0.79; H   _1  0.40; H   _2  0.40; 
 -----------------------------------------------------------------------------
  11  Screening settings (-IFTHRS, DIFDEN)  -11    T
@ 11  -76.0085552989       1.06D-05  -3.37D-10     3   1   1   0
      Virial theorem: -V/T =      1.999735
@      MULPOP O      -0.79; H   _1  0.40; H   _2  0.40; 
 -----------------------------------------------------------------------------
  12  Screening settings (-IFTHRS, DIFDEN)  -13    F
@ 12  -76.0085552989       8.17D-07  -7.59D-12     3   1   1   0
      Virial theorem: -V/T =      1.999735
@      MULPOP O      -0.79; H   _1  0.40; H   _2  0.40; 
 -----------------------------------------------------------------------------
  13  Screening settings (-IFTHRS, DIFDEN)  -16    F
@ 13  -76.0085552989       1.03D-07  -8.53D-14     3   1   1   0
      Virial theorem: -V/T =      1.999735
@      MULPOP O      -0.79; H   _1  0.40; H   _2  0.40; 
 -----------------------------------------------------------------------------
  14  Screening settings (-IFTHRS, DIFDEN)  -16    T
@ 14  -76.0085552989       9.30D-09   2.84D-14     3   1   1   0
      Virial theorem: -V/T =      1.999735
@      MULPOP O      -0.79; H   _1  0.40; H   _2  0.40; 
 -----------------------------------------------------------------------------
  15  Screening settings (-IFTHRS, DIFDEN)  -16    T
@ 15  -76.0085552989       7.17D-10  -5.68D-14     3   1   1   0
      Virial theorem: -V/T =      1.999735
@      MULPOP O      -0.79; H   _1  0.40; H   _2  0.40; 
 -----------------------------------------------------------------------------
  16  Screening settings (-IFTHRS, DIFDEN)  -16    T
@ 16  -76.0085552989       6.72D-11   1.42D-14     3   1   1   0

@ *** DIIS converged in  16 iterations !
@     Converged SCF energy, gradient:    -76.008555298862    6.72D-11
    - total time used in SIRFCK :              0.00 seconds


 *** SCF orbital energy analysis ***

 Only the five lowest virtual orbital energies printed in each symmetry.

 Number of electrons :   10
 Orbital occupations :    3    1    1    0

 Sym       Hartree-Fock orbital energies

  1    -20.55592147    -1.35102480    -0.56185905     0.13921191     0.58845705
         1.02770593     1.43344560     2.45886490

  2     -0.70370486     0.21169558     0.55054994     1.15106186     2.50248319
         5.53185296

  3     -0.50342293     1.00026935     5.30534535

    E(LUMO) :     0.13921191 au (symmetry 1)
  - E(HOMO) :    -0.50342293 au (symmetry 3)
  ------------------------------------------
    gap     :     0.64263484 au

 >>> Writing SIRIFC interface file <<<

  Canonical primary and secondary basis sets
  ISYM       NORB1 MBAS1       NORB2 MBAS2
     1          10    10          17    17
     2           6     6          11    11
     3           3     3           6     6
     4           0     0           2     2

 Computation of exchange matrix done [6]

 AUXILIARY BASIS LOW EIGENVALUES
 ISYM         EIGENVALUE
   1      0.000118096117
   2      0.000049708918
   3      0.003434546568
   4      0.085169844552

 >>>> CPU and wall time for SCF :       0.170       0.172


                       .-----------------------------------.
                       | >>> Final results from SIRIUS <<< |
                       `-----------------------------------'


@    Spin multiplicity:           1
@    Spatial symmetry:            1
@    Total charge of molecule:    0

@    Final HF energy:             -76.008555298862                 
@    Nuclear repulsion:             9.055004525638
@    Electronic energy:           -85.063559824500

@    Final gradient norm:           0.000000000067

 
     Date and time (Linux)  : Sun Sep  8 21:09:15 2013
     Host name              : lpqlx131.ups-tlse.fr                    

 (Only coefficients >0.0100 are printed.)

 Molecular orbitals for symmetry species  1
 ------------------------------------------

    Orbital         1        2        3        4        5        6
   1 O   :1s     0.5515  -0.1134  -0.0407   0.0336  -0.0333  -0.0212
   2 O   :1s     0.4717  -0.1903  -0.0688   0.0549  -0.0581  -0.0380
   3 O   :1s     0.0054   0.5437   0.2107  -0.1062   0.1510   0.1495
   4 O   :1s    -0.0001   0.4447   0.2804  -0.8499   1.0840   0.3239
   5 O   :2py    0.0025   0.0402  -0.2509  -0.0819   0.1113  -0.2260
   6 O   :2py   -0.0009   0.0904  -0.3802  -0.1352   0.1846  -0.8392
   7 O   :2py    0.0004   0.0556  -0.3818  -0.2260   0.9284   1.3999
   8 H   :1s     0.0002   0.0956  -0.0890   0.0390  -0.0741  -0.0467
   9 H   :1s    -0.0001   0.0391  -0.1100  -0.0361  -1.6674  -0.3258
  10 H   :1s     0.0001  -0.0037  -0.0334   0.8239   0.6531  -0.0593

 Molecular orbitals for symmetry species  2
 ------------------------------------------

    Orbital         1        2        3
   1 O   :2px   -0.2202   0.1268   0.1298
   2 O   :2px   -0.3665   0.1479   0.1938
   3 O   :2px   -0.2281   0.5262   1.0399
   4 H   :1s    -0.1568  -0.0267  -0.0865
   5 H   :1s    -0.2014   0.0962  -1.4112
   6 H   :1s    -0.0526  -1.5270   0.8063

 Molecular orbitals for symmetry species  3
 ------------------------------------------

    Orbital         1        2        3
   1 O   :2pz    0.2938   0.2410  -1.2700
   2 O   :2pz    0.4406   0.8364   1.3705
   3 O   :2pz    0.4866  -1.1368  -0.5240



 >>>> Total CPU  time used in SIRIUS :      0.17 seconds
 >>>> Total wall time used in SIRIUS :      0.17 seconds

 
     Date and time (Linux)  : Sun Sep  8 21:09:15 2013
     Host name              : lpqlx131.ups-tlse.fr                    


                     .---------------------------------------.
                     | End of Wave Function Section (SIRIUS) |
                     `---------------------------------------'



                    .------------------------------------------.
                    | Starting in Coupled Cluster Section (CC) |
                    `------------------------------------------'

  

 *******************************************************************************
 *******************************************************************************
 *                                                                             *
 *                                                                             *
 *                    START OF COUPLED CLUSTER CALCULATION                     *
 *                                                                             *
 *                                                                             *
 *******************************************************************************
 *******************************************************************************


  I am freezing!
  >> output from FNDMN3 <<
  NUMBER OF ELEMENTS OBTAINED IN FNDMN3            1
  FROM FNDMN3 : 
    PLACES OF LOWEST ELEMENTS 
     1 :      1
  MIN AND MAX IN SELECTED SUPSPACE   -20.555921468345083       -20.555921468345083     
 Freezing HF-orbital   1 of symmetry   1 and with orbital energy  -20.5559
 In total frozen-core per symmetry-class:  1  0  0  0
 


 CCR12 ANSATZ =   3

 CCR12 APPROX =  10


  I am freezing!
 Freezing HF-orbital   1 of symmetry   1 and with orbital energy  -20.5559
 In total frozen-core per symmetry-class:  1  0  0  0
 
   NRHF   :       3       1       1       0
   NRHFS  :       4       1       1       0
   NORB1  :      10       6       3       0
   NORB2  :      17      11       6       2

 Number of primary orbitals             :           19
 Number of secondary orbitals           :           36
 Total number of orbitals               :           55
 Total number of basis functions        :           55
 Number of (i|p') integrals             :          107
 Number of (i|u') integrals             :          107
 Number of (Ip'|1/r12|jL) integrals     :          107
 Number of (ip'|1/r12|jq') integrals    :        11142
 Number of (ip'|r12|jq') integrals      :        11142
 Number of (ip'|[T1,r12]|jq') integrals :        22009
 Threshold for R12 contributions            =  0.00000    
 Threshold for singular value decomposition = 0.100000E-11

 The B matrix is transformed into an orthogonal basis
 and inverted by diagonalization

 ******************************************************************************
 The MP2-R12/A and MP2-R12/B energies are computed as described in:
 W. Klopper and C. C. M. Samson, J. Chem. Phys. 116, 6397-6410 (2002).
 ------------------------------------------------------------------------------
 Ansatz 3 is used and results are printed for approximations A and B.
 ******************************************************************************

 Core memory required by CCSD_R12 :          67363  (double words)

 Computation of (ip'|r12|jq') integrals done
 >>>  Time used in R  [6]     is   1.40 seconds
 Backtransformation of (ip'|r12|jq') integrals done
 Computation of V^aj_kl intermediate done

 >>> Time used for V^aj_kl is    0.00 seconds

 Computation of (ip'|1/r12|jq') integrals done
 >>>  Time used in 1/R[5]     is   0.48 seconds
 Computation of (ip'|r12|jq')X(p'r')(kr'|r12|lq') integrals done
 Computation of (i'p'|r12|jq') integrals done
 >>>  Time used in R  [6]     is   1.41 seconds
 Computation of (ip'|[T,r12]|jq') integrals done
 >>>  Time used in T,R[5]     is   0.69 seconds


          +-------------------------------------------------------------+
          ! MP2-R12 ansatz := (1 - V1*V2) * (1 - O1 - O2 + O1*O2) * R12 !
          +-------------------------------------------------------------+



                         +--------------------------------+
                         ! Auxiliary-basis MP2-R12 method !
                         +--------------------------------+


 SECOND-ORDER R12/B   PAIR ENERGIES:

   1   -0.006307917   -0.011871904    0.000000000   -0.000000000     3.20696         3.46925    
   2   -0.006726494   -0.011752415   -0.004985686   -0.007004406     2.40631         2.67746    
   3   -0.011772679   -0.022494628    0.000000000   -0.000000000     1.59999         1.88463    
   4   -0.009083517   -0.016033387   -0.005268403   -0.007149185     2.55053         2.81983    
   5   -0.011371386   -0.016382026   -0.011120957   -0.021033733     1.74555         2.02725    
   6   -0.015713492   -0.023993147    0.000000000   -0.000000000     1.89078         2.16980    
   7   -0.006740954   -0.012449023   -0.005299964   -0.007933314     2.34684         2.61879    
   8   -0.006784382   -0.013584906   -0.011723341   -0.023784460     1.53991         1.82587    
   9   -0.006360905   -0.010766742   -0.011517441   -0.022990092     1.68562         1.96850    
  10   -0.010482080   -0.022700021    0.000000000   -0.000000000     1.47977         1.76708    

       -0.091343806   -0.162028201   -0.049915792   -0.089895190

              MP2-R12/B   correlation energy =   -0.251923390
 Time for MP2-R12 part cpu :   4.0749999999999993     
 Time for MP2-R12 part wall:   4.1030000150203705     

  I am freezing!
  >> output from FNDMN3 <<
  NUMBER OF ELEMENTS OBTAINED IN FNDMN3            1
  FROM FNDMN3 : 
    PLACES OF LOWEST ELEMENTS 
     1 :      1
  MIN AND MAX IN SELECTED SUPSPACE   -20.555921468345083       -20.555921468345083     
 Freezing HF-orbital   1 of symmetry   1 and with orbital energy  -20.5559
 In total frozen-core per symmetry-class:  1  0  0  0
 
 Preparing R12 Ansatz 2/3 ... ONEAUX= F
   

 *******************************************************************
 *                                                                 *
 *<<<<<<<<<<                                             >>>>>>>>>>*
 *<<<<<<<<<< OUTPUT FROM COUPLED CLUSTER ENERGY PROGRAM  >>>>>>>>>>*
 *<<<<<<<<<<                                             >>>>>>>>>>*
 *                                                                 *
 *******************************************************************


             The Direct Coupled Cluster Energy Program
             -----------------------------------------


          Number of t1 amplitudes                 :        21
          Number of t2 amplitudes                 :       478
          Number of t2' amplitudes for R12 part   :        69
          Total number of amplitudes in ccsd      :       568

 Iter.  1: Coupled cluster MP2-R12/B energy :     -76.2604786890916131
     Conventional correlation energy:    -0.1436058986848820
     R12 correlation energy         :    -0.1083174915445515
     Total correlation energy       :    -0.2519233902294336


       Iteration no.:  1
       -----------------

       Time used in   RHS - TOTAL  :       0.13 seconds
       Norm^2 of omega1 after ccvec:        0.3670044148D-02
       Norm^2 of omega2 after ccvec:        0.1595808730D-28
       Norm^2 of Omegar12  in NXTAM:        0.1014172139D-25
 Iter.  1: Coupled cluster CC2-R12/B energy :     -76.2604577838014279
     Conventional correlation energy:    -0.1435849933947111
     R12 correlation energy         :    -0.1083174915445409
     Total correlation energy       :    -0.2519024849392520


       Iteration no.:  2
       -----------------

       Time used in   RHS - TOTAL  :       0.13 seconds
       Norm^2 of omega1 after ccvec:        0.4270520818D-04
       Norm^2 of omega2 after ccvec:        0.6518824556D-04
       Norm^2 of Omegar12  in NXTAM:        0.1808682270D-05
 Iter.  2: Coupled cluster CC2-R12/B energy :     -76.2623417542024811
     Conventional correlation energy:    -0.1453622200630917
     R12 correlation energy         :    -0.1084242352772177
     Total correlation energy       :    -0.2537864553403095


       Iteration no.:  3
       -----------------

       Time used in   RHS - TOTAL  :       0.13 seconds
       Norm^2 of omega1 after ccvec:        0.4087023660D-05
       Norm^2 of omega2 after ccvec:        0.1894789420D-05
       Norm^2 of Omegar12  in NXTAM:        0.3275662889D-06
 Iter.  3: Coupled cluster CC2-R12/B energy :     -76.2625098711360465
     Conventional correlation energy:    -0.1454908877815058
     R12 correlation energy         :    -0.1084636844923670
     Total correlation energy       :    -0.2539545722738727


       Iteration no.:  4
       -----------------

       Time used in   RHS - TOTAL  :       0.14 seconds
       Norm^2 of omega1 after ccvec:        0.1842261995D-06
       Norm^2 of omega2 after ccvec:        0.3769096217D-06
       Norm^2 of Omegar12  in NXTAM:        0.2818909839D-07
 Iter.  4: Coupled cluster CC2-R12/B energy :     -76.2624754641620228
     Conventional correlation energy:    -0.1454491911113820
     R12 correlation energy         :    -0.1084709741884646
     Total correlation energy       :    -0.2539201652998466


       Iteration no.:  5
       -----------------

       Time used in   RHS - TOTAL  :       0.14 seconds
       Norm^2 of omega1 after ccvec:        0.3169642462D-07
       Norm^2 of omega2 after ccvec:        0.1377796635D-07
       Norm^2 of Omegar12  in NXTAM:        0.2664201336D-08
 Iter.  5: Coupled cluster CC2-R12/B energy :     -76.2624759837562038
     Conventional correlation energy:    -0.1454502881410491
     R12 correlation energy         :    -0.1084703967529782
     Total correlation energy       :    -0.2539206848940273


       Iteration no.:  6
       -----------------

       Time used in   RHS - TOTAL  :       0.14 seconds
       Norm^2 of omega1 after ccvec:        0.3103197101D-08
       Norm^2 of omega2 after ccvec:        0.2692667097D-08
       Norm^2 of Omegar12  in NXTAM:        0.5339071980D-09
 Iter.  6: Coupled cluster CC2-R12/B energy :     -76.2624769597391463
     Conventional correlation energy:    -0.1454517835592384
     R12 correlation energy         :    -0.1084698773177252
     Total correlation energy       :    -0.2539216608769636


       Iteration no.:  7
       -----------------

       Time used in   RHS - TOTAL  :       0.14 seconds
       Norm^2 of omega1 after ccvec:        0.7839842138D-10
       Norm^2 of omega2 after ccvec:        0.2172954002D-09
       Norm^2 of Omegar12  in NXTAM:        0.1539283651D-10
 Iter.  7: Coupled cluster CC2-R12/B energy :     -76.2624773974509367
     Conventional correlation energy:    -0.1454522099853079
     R12 correlation energy         :    -0.1084698886034519
     Total correlation energy       :    -0.2539220985887598


       Iteration no.:  8
       -----------------

       Time used in   RHS - TOTAL  :       0.14 seconds
       Norm^2 of omega1 after ccvec:        0.2964102325D-11
       Norm^2 of omega2 after ccvec:        0.5231862913D-11
       Norm^2 of Omegar12  in NXTAM:        0.2840965259D-11
 Iter.  8: Coupled cluster CC2-R12/B energy :     -76.2624773637837876
     Conventional correlation energy:    -0.1454522039435773
     R12 correlation energy         :    -0.1084698609780324
     Total correlation energy       :    -0.2539220649216096


       Iteration no.:  9
       -----------------

       Time used in   RHS - TOTAL  :       0.14 seconds
       Norm^2 of omega1 after ccvec:        0.7424997814D-13
       Norm^2 of omega2 after ccvec:        0.2860588315D-12
       Norm^2 of Omegar12  in NXTAM:        0.8074433582D-13
 Iter.  9: Coupled cluster CC2-R12/B energy :     -76.2624773271776064
     Conventional correlation energy:    -0.1454521762180434
     R12 correlation energy         :    -0.1084698520973911
     Total correlation energy       :    -0.2539220283154345


       Iteration no.: 10
       -----------------

       Time used in   RHS - TOTAL  :       0.13 seconds
       Norm^2 of omega1 after ccvec:        0.6148121556D-14
       Norm^2 of omega2 after ccvec:        0.2673478432D-13
       Norm^2 of Omegar12  in NXTAM:        0.1157978198D-13
 Iter. 10: Coupled cluster CC2-R12/B energy :     -76.2624773280853105
     Conventional correlation energy:    -0.1454521782055878
     R12 correlation energy         :    -0.1084698510175508
     Total correlation energy       :    -0.2539220292231386


       Iteration no.: 11
       -----------------

       Time used in   RHS - TOTAL  :       0.14 seconds
       Norm^2 of omega1 after ccvec:        0.9262550478D-15
       Norm^2 of omega2 after ccvec:        0.3613363292D-14
       Norm^2 of Omegar12  in NXTAM:        0.5728333785D-15
 Iter. 11: Coupled cluster CC2-R12/B energy :     -76.2624773267959739
     Conventional correlation energy:    -0.1454521780223814
     R12 correlation energy         :    -0.1084698499114193
     Total correlation energy       :    -0.2539220279338007


       Iteration no.: 12
       -----------------

       Time used in   RHS - TOTAL  :       0.13 seconds
       Norm^2 of omega1 after ccvec:        0.3868976456D-16
       Norm^2 of omega2 after ccvec:        0.5194185556D-16
       Norm^2 of Omegar12  in NXTAM:        0.3632101551D-17
 Iter. 12: Coupled cluster CC2-R12/B energy :     -76.2624773271545990
     Conventional correlation energy:    -0.1454521783268206
     R12 correlation energy         :    -0.1084698499656012
     Total correlation energy       :    -0.2539220282924217


       Iteration no.: 13
       -----------------

       Time used in   RHS - TOTAL  :       0.14 seconds
       Norm^2 of omega1 after ccvec:        0.3429106277D-17
       Norm^2 of omega2 after ccvec:        0.3058006647D-17
       Norm^2 of Omegar12  in NXTAM:        0.5286346573D-18
 Iter. 13: Coupled cluster CC2-R12/B energy :     -76.2624773272655432
     Conventional correlation energy:    -0.1454521784277460
     R12 correlation energy         :    -0.1084698499756139
     Total correlation energy       :    -0.2539220284033600


       Iteration no.: 14
       -----------------

       Time used in   RHS - TOTAL  :       0.14 seconds
       Norm^2 of omega1 after ccvec:        0.3796395071D-18
       Norm^2 of omega2 after ccvec:        0.6072987603D-18
       Norm^2 of Omegar12  in NXTAM:        0.2123629539D-18
 Iter. 14: Coupled cluster CC2-R12/B energy :     -76.2624773272256533
     Conventional correlation energy:    -0.1454521783905705
     R12 correlation energy         :    -0.1084698499729074
     Total correlation energy       :    -0.2539220283634778


       Iteration no.: 15
       -----------------

       Time used in   RHS - TOTAL  :       0.13 seconds
       Norm^2 of omega1 after ccvec:        0.1522529466D-19
       Norm^2 of omega2 after ccvec:        0.3440838990D-19
       Norm^2 of Omegar12  in NXTAM:        0.3102092403D-20
 Iter. 15: Coupled cluster CC2-R12/B energy :     -76.2624773272303997
     Conventional correlation energy:    -0.1454521783936258
     R12 correlation energy         :    -0.1084698499745972
     Total correlation energy       :    -0.2539220283682230


       Iteration no.: 16
       -----------------

       Time used in   RHS - TOTAL  :       0.14 seconds
       Norm^2 of omega1 after ccvec:        0.8847617887D-21
       Norm^2 of omega2 after ccvec:        0.8183145572D-21
       Norm^2 of Omegar12  in NXTAM:        0.9978797183D-21
 Iter. 16: Coupled cluster CC2-R12/B energy :     -76.2624773272358567
     Conventional correlation energy:    -0.1454521783983296
     R12 correlation energy         :    -0.1084698499753506
     Total correlation energy       :    -0.2539220283736802


       Iteration no.: 17
       -----------------

       Time used in   RHS - TOTAL  :       0.13 seconds
       Norm^2 of omega1 after ccvec:        0.7694387298D-23
       Norm^2 of omega2 after ccvec:        0.2683932779D-22
       Norm^2 of Omegar12  in NXTAM:        0.3868893899D-23
 Iter. 17: Coupled cluster CC2-R12/B energy :     -76.2624773272357004
     Conventional correlation energy:    -0.1454521783981590
     R12 correlation energy         :    -0.1084698499753664
     Total correlation energy       :    -0.2539220283735255


 CC2-R12/B energy converged to within   0.10D-11 is          -76.262477327236
 Final 2-norm of the CC vector function:  5.87653938D-12
 R12       energy converged to within   0.10D-11 is     -0.108469850


                    +------------------------------------------+
                    ! Largest amplitudes in converged solution !
                    +------------------------------------------+



          CC_PRAM:Overall Contribution of the Different Components
          --------------------------------------------------------



          Single Excitation Contribution :               2.4230 %

          Double Excitation Contribution :              97.5770 %

          ||T1||/||T2||                  :               0.1576

          Tau1 diagnostic                :               0.0081

          Norm of Total Amplitude Vector :               0.1475


 +=============================================================================+
 | symmetry|  orbital index  |   Excitation Numbers             |   Amplitude  |
 |  Index  |   a   b   i   j |      NAI      NBJ |     NAIBJ    |              |
 +=============================================================================+
 | 1   1   |   1       2     |        8          |              |   -0.010363  |
 | 1   1   |   6       2     |       13          |              |   -0.005796  |
 | 2   2   |   3       1     |       17          |              |    0.007072  |
 | 2   2   |   5       1     |       19          |              |   -0.005799  |
 | 3   3   |   1       1     |       20          |              |   -0.013213  |
 | 3   3   |   2       1     |       21          |              |   -0.005677  |
 +-----------------------------------------------------------------------------+
 | 1 1 1 1 |   3   3   2   2 |       10       10 |           55 |   -0.039166  |
 | 3 3 3 3 |   1   1   1   1 |       20       20 |          210 |   -0.046816  |
 +=============================================================================+


          Norm of Printed Amplitude Vector :             0.0645

          Printed all single excitations greater than 0.005189

          Printed all double excitations greater than 0.032927





             +-------------------------------------------------------+
             ! Final results from the Coupled Cluster energy program !
             +-------------------------------------------------------+



            Total SCF   energy:                   -76.0085552989

            Total MP2-R12/B energy:               -76.2604786891

            Total CC2-R12/B energy:               -76.2624773272




                   +--------------------------------------------+
                   ! Calculating singlet intermediates for CCLR !
                   +--------------------------------------------+



       Time used in   RHS - TOTAL  :       0.14 seconds


            E-intermediates calculated 
            Fock-intermediate calculated 


   

 *******************************************************************
 *                                                                 *
 *<<<<<<<<<< OUTPUT FROM COUPLED CLUSTER LINEAR RESPONSE >>>>>>>>>>*
 *                                                                 *
 *<<<<<<<<<<     CALCULATION OF EXCITATION ENERGIES      >>>>>>>>>>*
 *                                                                 *
 *******************************************************************



                            +--------------------------+
                            !  CC2 Excitation Energies !
                            +--------------------------+


 --------------------------
 Symmetry class Nr.:     1
 Multiplicity      :     1
 --------------------------

 Length of Excitation vectors in this class is:       568
 Converging for  4 roots.
  >> output from FNDMN3 <<
  NUMBER OF ELEMENTS OBTAINED IN FNDMN3            7
  FROM FNDMN3 : 
    PLACES OF LOWEST ELEMENTS 
     1 :      8     15      9     16    420     57    477
  MIN AND MAX IN SELECTED SUPSPACE   0.70107096021614868        1.4302370192580736     
 Start vector guessed from diagonal
 ... selected element no.  8
 Start vector guessed from diagonal
 ... selected element no. 15
 Start vector guessed from diagonal
 ... selected element no.  9
 Start vector guessed from diagonal
 ... selected element no. 16



 >>>>> COUPLED CLUSTER RESPONSE SOLVER <<<<<

    Iter  #Vectors  time (min)   residual
    --------------------------------------

 REDUCED EIGENVALUES real part:

               Column   1
       1       0.49188627
       2       0.74960393
       3       0.88588686
       4       1.03043425
    ==== End of matrix output ====
  
 ROOT:  1 RESIDUAL TOT: 3.96729D-01
 ROOT:  2 RESIDUAL TOT: 3.48629D-01
 ROOT:  3 RESIDUAL TOT: 3.99024D-01
 ROOT:  4 RESIDUAL TOT: 3.55977D-01
      1       4         0.01     0.40E+00

 Lowest eigenvalues in this iteration: 

               Column   1
       1       0.49188627
       2       0.74960393
       3       0.88588686
       4       1.03043425
    ==== End of matrix output ====
 Dimension of the reduced space:     8
 >>> TIME USED IN THIS MICRO ITERATION        0.54


 REDUCED EIGENVALUES real part:

               Column   1
       1       0.37398948
       2       0.65581918
       3       0.77924803
       4       0.94810258
    ==== End of matrix output ====
  
 ROOT:  1 RESIDUAL TOT: 6.79987D-02
 ROOT:  2 RESIDUAL TOT: 8.50775D-02
 ROOT:  3 RESIDUAL TOT: 7.79625D-02
 ROOT:  4 RESIDUAL TOT: 1.09782D-01
      2       4         0.01     0.11E+00

 Lowest eigenvalues in this iteration: 

               Column   1
       1       0.37398948
       2       0.65581918
       3       0.77924803
       4       0.94810258
    ==== End of matrix output ====
 Dimension of the reduced space:    12
 >>> TIME USED IN THIS MICRO ITERATION        0.54


 REDUCED EIGENVALUES real part:

               Column   1
       1       0.37212530
       2       0.65280892
       3       0.77603004
       4       0.94219380
    ==== End of matrix output ====
  
 ROOT:  1 RESIDUAL TOT: 2.66889D-02
 ROOT:  2 RESIDUAL TOT: 3.95986D-02
 ROOT:  3 RESIDUAL TOT: 3.51510D-02
 ROOT:  4 RESIDUAL TOT: 8.10824D-02
      3       4         0.01     0.81E-01

 Lowest eigenvalues in this iteration: 

               Column   1
       1       0.37212530
       2       0.65280892
       3       0.77603004
       4       0.94219380
    ==== End of matrix output ====
 Dimension of the reduced space:    16
 >>> TIME USED IN THIS MICRO ITERATION        0.54


 REDUCED EIGENVALUES real part:

               Column   1
       1       0.37224464
       2       0.65328003
       3       0.77595989
       4       0.94090319
    ==== End of matrix output ====
  
 ROOT:  1 RESIDUAL TOT: 7.42447D-03
 ROOT:  2 RESIDUAL TOT: 1.67110D-02
 ROOT:  3 RESIDUAL TOT: 1.84171D-02
 ROOT:  4 RESIDUAL TOT: 5.75735D-02
      4       4         0.01     0.58E-01

 Lowest eigenvalues in this iteration: 

               Column   1
       1       0.37224464
       2       0.65328003
       3       0.77595989
       4       0.94090319
    ==== End of matrix output ====
 Dimension of the reduced space:    20
 >>> TIME USED IN THIS MICRO ITERATION        0.54


 REDUCED EIGENVALUES real part:

               Column   1
       1       0.37223771
       2       0.65319526
       3       0.77595197
       4       0.94024000
    ==== End of matrix output ====
  
 ROOT:  1 RESIDUAL TOT: 1.78200D-03
 ROOT:  2 RESIDUAL TOT: 4.64277D-03
 ROOT:  3 RESIDUAL TOT: 7.11337D-03
 ROOT:  4 RESIDUAL TOT: 2.13022D-02
      5       4         0.01     0.21E-01

 Lowest eigenvalues in this iteration: 

               Column   1
       1       0.37223771
       2       0.65319526
       3       0.77595197
       4       0.94024000
    ==== End of matrix output ====
 Dimension of the reduced space:    24
 >>> TIME USED IN THIS MICRO ITERATION        0.54


 REDUCED EIGENVALUES real part:

               Column   1
       1       0.37223063
       2       0.65319839
       3       0.77595852
       4       0.94018229
    ==== End of matrix output ====
  
 ROOT:  1 RESIDUAL TOT: 5.25044D-04
 ROOT:  2 RESIDUAL TOT: 1.67219D-03
 ROOT:  3 RESIDUAL TOT: 3.16384D-03
 ROOT:  4 RESIDUAL TOT: 1.23844D-02
      6       4         0.01     0.12E-01

 Lowest eigenvalues in this iteration: 

               Column   1
       1       0.37223063
       2       0.65319839
       3       0.77595852
       4       0.94018229
    ==== End of matrix output ====
 Dimension of the reduced space:    28
 >>> TIME USED IN THIS MICRO ITERATION        0.54


 REDUCED EIGENVALUES real part:

               Column   1
       1       0.37222867
       2       0.65319412
       3       0.77595462
       4       0.94018157
    ==== End of matrix output ====
  
 ROOT:  1 RESIDUAL TOT: 9.98587D-05
 ROOT:  2 RESIDUAL TOT: 5.60788D-04
 ROOT:  3 RESIDUAL TOT: 1.41226D-03
 ROOT:  4 RESIDUAL TOT: 8.73679D-03
      7       4         0.01     0.87E-02

 Lowest eigenvalues in this iteration: 

               Column   1
       1       0.37222867
       2       0.65319412
       3       0.77595462
       4       0.94018157
    ==== End of matrix output ====
 Dimension of the reduced space:    32
 >>> TIME USED IN THIS MICRO ITERATION        0.55


 REDUCED EIGENVALUES real part:

               Column   1
       1       0.37222829
       2       0.65319649
       3       0.77595604
       4       0.94016006
    ==== End of matrix output ====
  
 ROOT:  1 RESIDUAL TOT: 1.62078D-05
 ROOT:  2 RESIDUAL TOT: 1.31319D-04
 ROOT:  3 RESIDUAL TOT: 3.94236D-04
 ROOT:  4 RESIDUAL TOT: 3.14958D-03
      8       4         0.01     0.31E-02

 Lowest eigenvalues in this iteration: 

               Column   1
       1       0.37222829
       2       0.65319649
       3       0.77595604
       4       0.94016006
    ==== End of matrix output ====
 Dimension of the reduced space:    36
 >>> TIME USED IN THIS MICRO ITERATION        0.55


 REDUCED EIGENVALUES real part:

               Column   1
       1       0.37222824
       2       0.65319621
       3       0.77595698
       4       0.94015061
    ==== End of matrix output ====
  
 ROOT:  1 RESIDUAL TOT: 2.38392D-06
 ROOT:  2 RESIDUAL TOT: 3.11711D-05
 ROOT:  3 RESIDUAL TOT: 1.03587D-04
 ROOT:  4 RESIDUAL TOT: 1.04289D-03
      9       4         0.01     0.10E-02

 Lowest eigenvalues in this iteration: 

               Column   1
       1       0.37222824
       2       0.65319621
       3       0.77595698
       4       0.94015061
    ==== End of matrix output ====
 Dimension of the reduced space:    40
 >>> TIME USED IN THIS MICRO ITERATION        0.55


 REDUCED EIGENVALUES real part:

               Column   1
       1       0.37222824
       2       0.65319606
       3       0.77595711
       4       0.94014924
    ==== End of matrix output ====
  
 ROOT:  1 RESIDUAL TOT: 4.14121D-07
 ROOT:  2 RESIDUAL TOT: 6.38118D-06
 ROOT:  3 RESIDUAL TOT: 2.36642D-05
 ROOT:  4 RESIDUAL TOT: 2.92653D-04
     10       4         0.01     0.29E-03

 Lowest eigenvalues in this iteration: 

               Column   1
       1       0.37222824
       2       0.65319606
       3       0.77595711
       4       0.94014924
    ==== End of matrix output ====
 Dimension of the reduced space:    44
 >>> TIME USED IN THIS MICRO ITERATION        0.55


 REDUCED EIGENVALUES real part:

               Column   1
       1       0.37222825
       2       0.65319605
       3       0.77595706
       4       0.94015005
    ==== End of matrix output ====
  
 ROOT:  1 RESIDUAL TOT: 7.50984D-08
 ROOT:  2 RESIDUAL TOT: 1.12370D-06
 ROOT:  3 RESIDUAL TOT: 6.12725D-06
 ROOT:  4 RESIDUAL TOT: 1.07607D-04
     11       4         0.01     0.11E-03

 Lowest eigenvalues in this iteration: 

               Column   1
       1       0.37222825
       2       0.65319605
       3       0.77595706
       4       0.94015005
    ==== End of matrix output ====
 Dimension of the reduced space:    48
 >>> TIME USED IN THIS MICRO ITERATION        0.55


 REDUCED EIGENVALUES real part:

               Column   1
       1       0.37222825
       2       0.65319605
       3       0.77595705
       4       0.94015011
    ==== End of matrix output ====
  
 ROOT:  1 RESIDUAL TOT: 9.47041D-09
 ROOT:  2 RESIDUAL TOT: 2.92256D-07
 ROOT:  3 RESIDUAL TOT: 1.95226D-06
 ROOT:  4 RESIDUAL TOT: 4.51613D-05
     12       4         0.01     0.45E-04

 Lowest eigenvalues in this iteration: 

               Column   1
       1       0.37222825
       2       0.65319605
       3       0.77595705
       4       0.94015011
    ==== End of matrix output ====
 Dimension of the reduced space:    52
 >>> TIME USED IN THIS MICRO ITERATION        0.55


 REDUCED EIGENVALUES real part:

               Column   1
       1       0.37222825
       2       0.65319605
       3       0.77595705
       4       0.94015018
    ==== End of matrix output ====
  
 ROOT:  1 RESIDUAL TOT: 1.84635D-09
 ROOT:  2 RESIDUAL TOT: 7.69888D-08
 ROOT:  3 RESIDUAL TOT: 5.25280D-07
 ROOT:  4 RESIDUAL TOT: 1.40283D-05
     13       4         0.01     0.14E-04

 Lowest eigenvalues in this iteration: 

               Column   1
       1       0.37222825
       2       0.65319605
       3       0.77595705
       4       0.94015018
    ==== End of matrix output ====
 Dimension of the reduced space:    56
 >>> TIME USED IN THIS MICRO ITERATION        0.55


 REDUCED EIGENVALUES real part:

               Column   1
       1       0.37222825
       2       0.65319605
       3       0.77595705
       4       0.94015019
    ==== End of matrix output ====
  
 ROOT:  1 RESIDUAL TOT: 3.00616D-10
 ROOT:  2 RESIDUAL TOT: 1.88110D-08
 ROOT:  3 RESIDUAL TOT: 1.36855D-07
 ROOT:  4 RESIDUAL TOT: 3.97581D-06
     14       4         0.01     0.40E-05

 Lowest eigenvalues in this iteration: 

               Column   1
       1       0.37222825
       2       0.65319605
       3       0.77595705
       4       0.94015019
    ==== End of matrix output ====
 Dimension of the reduced space:    60
 >>> TIME USED IN THIS MICRO ITERATION        0.55


 REDUCED EIGENVALUES real part:

               Column   1
       1       0.37222825
       2       0.65319605
       3       0.77595705
       4       0.94015018
    ==== End of matrix output ====
  
 ROOT:  1 RESIDUAL TOT: 3.47367D-11
 ROOT:  1 HAS CONVERGED. RESIDUAL TOT: 3.47367D-11
 ROOT:  2 RESIDUAL TOT: 4.30601D-09
 ROOT:  3 RESIDUAL TOT: 3.60261D-08
 ROOT:  4 RESIDUAL TOT: 1.29249D-06
     15       4         0.01     0.13E-05

 Lowest eigenvalues in this iteration: 

               Column   1
       1       0.37222825
       2       0.65319605
       3       0.77595705
       4       0.94015018
    ==== End of matrix output ====
 Dimension of the reduced space:    63
 >>> TIME USED IN THIS MICRO ITERATION        0.55


 REDUCED EIGENVALUES real part:

               Column   1
       1       0.37222825
       2       0.65319605
       3       0.77595705
       4       0.94015018
    ==== End of matrix output ====
  
 ROOT:  1 RESIDUAL TOT: 2.90760D-11
 ROOT:  1 HAS CONVERGED. RESIDUAL TOT: 2.90760D-11
 ROOT:  2 RESIDUAL TOT: 6.74661D-10
 ROOT:  3 RESIDUAL TOT: 6.64766D-09
 ROOT:  4 RESIDUAL TOT: 3.55814D-07
     16       3         0.01     0.36E-06

 Lowest eigenvalues in this iteration: 

               Column   1
       1       0.37222825
       2       0.65319605
       3       0.77595705
       4       0.94015018
    ==== End of matrix output ====
 Dimension of the reduced space:    66
 >>> TIME USED IN THIS MICRO ITERATION        0.42


 REDUCED EIGENVALUES real part:

               Column   1
       1       0.37222825
       2       0.65319605
       3       0.77595705
       4       0.94015018
    ==== End of matrix output ====
  
 ROOT:  1 RESIDUAL TOT: 2.80563D-11
 ROOT:  1 HAS CONVERGED. RESIDUAL TOT: 2.80563D-11
 ROOT:  2 RESIDUAL TOT: 1.06814D-10
 ROOT:  3 RESIDUAL TOT: 1.35117D-09
 ROOT:  4 RESIDUAL TOT: 1.00411D-07
     17       3         0.01     0.10E-06

 Lowest eigenvalues in this iteration: 

               Column   1
       1       0.37222825
       2       0.65319605
       3       0.77595705
       4       0.94015018
    ==== End of matrix output ====
 Dimension of the reduced space:    69
 >>> TIME USED IN THIS MICRO ITERATION        0.42


 REDUCED EIGENVALUES real part:

               Column   1
       1       0.37222825
       2       0.65319605
       3       0.77595705
       4       0.94015018
    ==== End of matrix output ====
  
 ROOT:  1 RESIDUAL TOT: 2.72806D-11
 ROOT:  1 HAS CONVERGED. RESIDUAL TOT: 2.72806D-11
 ROOT:  2 RESIDUAL TOT: 1.50397D-11
 ROOT:  2 HAS CONVERGED. RESIDUAL TOT: 1.50397D-11
 ROOT:  3 RESIDUAL TOT: 2.10077D-10
 ROOT:  4 RESIDUAL TOT: 1.72581D-08
     18       3         0.01     0.17E-07

 Lowest eigenvalues in this iteration: 

               Column   1
       1       0.37222825
       2       0.65319605
       3       0.77595705
       4       0.94015018
    ==== End of matrix output ====
 Dimension of the reduced space:    71
 >>> TIME USED IN THIS MICRO ITERATION        0.42


 REDUCED EIGENVALUES real part:

               Column   1
       1       0.37222825
       2       0.65319605
       3       0.77595705
       4       0.94015018
    ==== End of matrix output ====
  
 ROOT:  1 RESIDUAL TOT: 2.61691D-11
 ROOT:  1 HAS CONVERGED. RESIDUAL TOT: 2.61691D-11
 ROOT:  2 RESIDUAL TOT: 4.16891D-12
 ROOT:  2 HAS CONVERGED. RESIDUAL TOT: 4.16891D-12
 ROOT:  3 RESIDUAL TOT: 3.52003D-11
 ROOT:  3 HAS CONVERGED. RESIDUAL TOT: 3.52003D-11
 ROOT:  4 RESIDUAL TOT: 3.23201D-09
     19       2         0.00     0.32E-08

 Lowest eigenvalues in this iteration: 

               Column   1
       1       0.37222825
       2       0.65319605
       3       0.77595705
       4       0.94015018
    ==== End of matrix output ====
 Dimension of the reduced space:    72
 >>> TIME USED IN THIS MICRO ITERATION        0.29


 REDUCED EIGENVALUES real part:

               Column   1
       1       0.37222825
       2       0.65319605
       3       0.77595705
       4       0.94015018
    ==== End of matrix output ====
  
 ROOT:  1 RESIDUAL TOT: 2.64222D-11
 ROOT:  1 HAS CONVERGED. RESIDUAL TOT: 2.64222D-11
 ROOT:  2 RESIDUAL TOT: 3.89961D-12
 ROOT:  2 HAS CONVERGED. RESIDUAL TOT: 3.89961D-12
 ROOT:  3 RESIDUAL TOT: 2.22185D-11
 ROOT:  3 HAS CONVERGED. RESIDUAL TOT: 2.22185D-11
 ROOT:  4 RESIDUAL TOT: 6.65154D-10
     20       1         0.00     0.67E-09

 Lowest eigenvalues in this iteration: 

               Column   1
       1       0.37222825
       2       0.65319605
       3       0.77595705
       4       0.94015018
    ==== End of matrix output ====
 Dimension of the reduced space:    73
 >>> TIME USED IN THIS MICRO ITERATION        0.15


 REDUCED EIGENVALUES real part:

               Column   1
       1       0.37222825
       2       0.65319605
       3       0.77595705
       4       0.94015018
    ==== End of matrix output ====
  
 ROOT:  1 RESIDUAL TOT: 2.69447D-11
 ROOT:  1 HAS CONVERGED. RESIDUAL TOT: 2.69447D-11
 ROOT:  2 RESIDUAL TOT: 3.91266D-12
 ROOT:  2 HAS CONVERGED. RESIDUAL TOT: 3.91266D-12
 ROOT:  3 RESIDUAL TOT: 2.15373D-11
 ROOT:  3 HAS CONVERGED. RESIDUAL TOT: 2.15373D-11
 ROOT:  4 RESIDUAL TOT: 1.33237D-10
     21       1         0.00     0.13E-09

 Lowest eigenvalues in this iteration: 

               Column   1
       1       0.37222825
       2       0.65319605
       3       0.77595705
       4       0.94015018
    ==== End of matrix output ====
 Dimension of the reduced space:    74
 >>> TIME USED IN THIS MICRO ITERATION        0.15


 REDUCED EIGENVALUES real part:

               Column   1
       1       0.37222825
       2       0.65319605
       3       0.77595705
       4       0.94015018
    ==== End of matrix output ====
  
 ROOT:  1 RESIDUAL TOT: 2.46279D-11
 ROOT:  1 HAS CONVERGED. RESIDUAL TOT: 2.46279D-11
 ROOT:  2 RESIDUAL TOT: 3.89251D-12
 ROOT:  2 HAS CONVERGED. RESIDUAL TOT: 3.89251D-12
 ROOT:  3 RESIDUAL TOT: 2.09349D-11
 ROOT:  3 HAS CONVERGED. RESIDUAL TOT: 2.09349D-11
 ROOT:  4 RESIDUAL TOT: 2.69363D-11
 ROOT:  4 HAS CONVERGED. RESIDUAL TOT: 2.69363D-11
     22       1         0.00     0.27E-10

 Lowest eigenvalues in this iteration: 

               Column   1
       1       0.37222825
       2       0.65319605
       3       0.77595705
       4       0.94015018
    ==== End of matrix output ====
 Dimension of the reduced space:    74
 >>> TIME USED IN THIS MICRO ITERATION        0.15

    --------------------------------------
    converged in 22 iterations
    threshold:    0.10E-09


         Routine          Time (min)
         ---------------------------
         CC_TRDRV            0.17
         CCRED               0.00
         CCNEX               0.00
         ---------------------------
         Total time          0.17


 >>>> Total CPU  time used in CCEQ_SOLV:  10.18 seconds
 >>>> Total wall time used in CCEQ_SOLV:  11.19 seconds


 >>>>>>>>>>>>>>>>>>>>> <<<<<<<<<<<<<<<<<<<<<



  Final eigenvalues :
 =====================
 (convergence threshold:  1.00D-10)

    1   0.3722282456
    2   0.6531960512
    3   0.7759570494
    4   0.9401501823


 SYMMETRY CLASS NR.    1
 MULTIPLICITY          1


 CC2-R12/B  right excitation energies:
 ====================================
 (conversion factor used: 1 au = 27.2113957 eV)

 Excitation no.       Hartree               eV 
 --------------       -------               --
         1            0.3722282456       10.1288458044
         2            0.6531960512       17.7743687146
         3            0.7759570494       21.1148654005
         4            0.9401501823       25.5827878255


 Total excited state energies for states of symmetry/spin    1    1
 Excitation no.       Energy (Hartree) 
 ------------------------------------- 
@@    1    1           -75.890249081652129
@@    1    2           -75.609281276000530
@@    1    3           -75.486520277877801
@@    1    4           -75.322327144940601


 Analysis of the Coupled Cluster Excitation Vector Number :  1
 -------------------------------------------------------------

          Excitation Energy :                            10.1288 eV


          CC_PRAM:Overall Contribution of the Different Components
          --------------------------------------------------------



          Single Excitation Contribution :              96.4564 %

          Double Excitation Contribution :               3.5436 %

          ||T1||/||T2||                  :               5.2173

          Norm of Total Amplitude Vector :               0.9970


 +=============================================================================+
 | symmetry|  orbital index  |   Excitation Numbers             |   Amplitude  |
 |  Index  |   a   b   i   j |      NAI      NBJ |     NAIBJ    |              |
 +=============================================================================+
 | 1   1   |   1       2     |        8          |              |    0.971317  |
 +-----------------------------------------------------------------------------+
 | 1 1 1 1 |   1   1   2   2 |        8        8 |           36 |    0.059645  |
 | 1 1 1 1 |   2   1   2   2 |        9        8 |           44 |   -0.036535  |
 | 1 1 1 1 |   3   1   2   2 |       10        8 |           53 |    0.080529  |
 | 2 1 2 1 |   1   1   1   2 |       15        8 |          113 |   -0.074047  |
 | 2 1 2 1 |   2   1   1   2 |       16        8 |          128 |   -0.055819  |
 | 2 1 2 1 |   3   1   1   2 |       17        8 |          144 |    0.043651  |
 | 3 1 3 1 |   1   1   1   2 |       20        8 |          198 |    0.070805  |
 +=============================================================================+


          Norm of Printed Amplitude Vector :             0.9851

          Printed all single excitations greater than 0.163687

          Printed all double excitations greater than 0.031374


 Analysis of the Coupled Cluster Excitation Vector Number :  2
 -------------------------------------------------------------

          Excitation Energy :                            17.7744 eV


          CC_PRAM:Overall Contribution of the Different Components
          --------------------------------------------------------



          Single Excitation Contribution :              97.6496 %

          Double Excitation Contribution :               2.3504 %

          ||T1||/||T2||                  :               6.4457

          Norm of Total Amplitude Vector :               0.9993


 +=============================================================================+
 | symmetry|  orbital index  |   Excitation Numbers             |   Amplitude  |
 |  Index  |   a   b   i   j |      NAI      NBJ |     NAIBJ    |              |
 +=============================================================================+
 | 2   2   |   1       1     |       15          |              |    0.965198  |
 +-----------------------------------------------------------------------------+
[...]
 ROOT:  3 HAS CONVERGED. RESIDUAL TOT: 6.91816D-11
 ROOT:  4 RESIDUAL TOT: 4.95143D-09
     22       1         0.00     0.50E-08

 Lowest eigenvalues in this iteration: 

               Column   1
       1       0.38053942
       2       0.64234595
       3       1.16862500
       4       1.29377389
    ==== End of matrix output ====
 Dimension of the reduced space:    70
 >>> TIME USED IN THIS MICRO ITERATION        0.15


 REDUCED EIGENVALUES real part:

               Column   1
       1       0.38053942
       2       0.64234595
       3       1.16862500
       4       1.29377389
    ==== End of matrix output ====
  
 ROOT:  1 RESIDUAL TOT: 8.44713D-12
 ROOT:  1 HAS CONVERGED. RESIDUAL TOT: 8.44713D-12
 ROOT:  2 RESIDUAL TOT: 2.79538D-11
 ROOT:  2 HAS CONVERGED. RESIDUAL TOT: 2.79538D-11
 ROOT:  3 RESIDUAL TOT: 6.91991D-11
 ROOT:  3 HAS CONVERGED. RESIDUAL TOT: 6.91991D-11
 ROOT:  4 RESIDUAL TOT: 1.12104D-09
     23       1         0.00     0.11E-08

 Lowest eigenvalues in this iteration: 

               Column   1
       1       0.38053942
       2       0.64234595
       3       1.16862500
       4       1.29377389
    ==== End of matrix output ====
 Dimension of the reduced space:    71
 >>> TIME USED IN THIS MICRO ITERATION        0.15


 REDUCED EIGENVALUES real part:

               Column   1
       1       0.38053942
       2       0.64234595
       3       1.16862500
       4       1.29377389
    ==== End of matrix output ====
  
 ROOT:  1 RESIDUAL TOT: 8.42521D-12
 ROOT:  1 HAS CONVERGED. RESIDUAL TOT: 8.42521D-12
 ROOT:  2 RESIDUAL TOT: 2.81425D-11
 ROOT:  2 HAS CONVERGED. RESIDUAL TOT: 2.81425D-11
 ROOT:  3 RESIDUAL TOT: 7.00339D-11
 ROOT:  3 HAS CONVERGED. RESIDUAL TOT: 7.00339D-11
 ROOT:  4 RESIDUAL TOT: 2.84869D-10
     24       1         0.00     0.28E-09

 Lowest eigenvalues in this iteration: 

               Column   1
       1       0.38053942
       2       0.64234595
       3       1.16862500
       4       1.29377389
    ==== End of matrix output ====
 Dimension of the reduced space:    72
 >>> TIME USED IN THIS MICRO ITERATION        0.15


 REDUCED EIGENVALUES real part:

               Column   1
       1       0.38053942
       2       0.64234595
       3       1.16862500
       4       1.29377389
    ==== End of matrix output ====
  
 ROOT:  1 RESIDUAL TOT: 8.41058D-12
 ROOT:  1 HAS CONVERGED. RESIDUAL TOT: 8.41058D-12
 ROOT:  2 RESIDUAL TOT: 2.81421D-11
 ROOT:  2 HAS CONVERGED. RESIDUAL TOT: 2.81421D-11
 ROOT:  3 RESIDUAL TOT: 6.67664D-11
 ROOT:  3 HAS CONVERGED. RESIDUAL TOT: 6.67664D-11
 ROOT:  4 RESIDUAL TOT: 8.03818D-11
 ROOT:  4 HAS CONVERGED. RESIDUAL TOT: 8.03818D-11
     25       1         0.00     0.80E-10

 Lowest eigenvalues in this iteration: 

               Column   1
       1       0.38053942
       2       0.64234595
       3       1.16862500
       4       1.29377389
    ==== End of matrix output ====
 Dimension of the reduced space:    72
 >>> TIME USED IN THIS MICRO ITERATION        0.15

    --------------------------------------
    converged in 25 iterations
    threshold:    0.10E-09


         Routine          Time (min)
         ---------------------------
         CC_TRDRV            0.16
         CCRED               0.00
         CCNEX               0.00
         ---------------------------
         Total time          0.17


 >>>> Total CPU  time used in CCEQ_SOLV:   9.96 seconds
 >>>> Total wall time used in CCEQ_SOLV:  10.96 seconds


 >>>>>>>>>>>>>>>>>>>>> <<<<<<<<<<<<<<<<<<<<<



  Final eigenvalues :
 =====================
 (convergence threshold:  1.00D-10)

    1   0.3805394204
    2   0.6423459516
    3   1.1686250023
    4   1.2937738929


 SYMMETRY CLASS NR.    4
 MULTIPLICITY          1


 CC2-R12/B  right excitation energies:
 ====================================
 (conversion factor used: 1 au = 27.2113957 eV)

 Excitation no.       Hartree               eV 
 --------------       -------               --
         1            0.3805394204       10.3550043753
         2            0.6423459516       17.4791224836
         3            1.1686250023       31.7999039336
         4            1.2937738929       35.2053784797


 Total excited state energies for states of symmetry/spin    4    1
 Excitation no.       Energy (Hartree) 
 ------------------------------------- 
@@    4    1           -75.881937906845891
@@    4    2           -75.620131375676337
@@    4    3           -75.093852324984383
@@    4    4           -74.968703434365210


 Analysis of the Coupled Cluster Excitation Vector Number :  1
 -------------------------------------------------------------

          Excitation Energy :                            10.3550 eV


          CC_PRAM:Overall Contribution of the Different Components
          --------------------------------------------------------



          Single Excitation Contribution :              96.4944 %

          Double Excitation Contribution :               3.5056 %

          ||T1||/||T2||                  :               5.2465

          Norm of Total Amplitude Vector :               0.9996


 +=============================================================================+
 | symmetry|  orbital index  |   Excitation Numbers             |   Amplitude  |
 |  Index  |   a   b   i   j |      NAI      NBJ |     NAIBJ    |              |
 +=============================================================================+
 | 2   3   |   1       1     |        3          |              |    0.961771  |
 | 2   3   |   2       1     |        4          |              |    0.178582  |
 +-----------------------------------------------------------------------------+
 | 3 1 2 1 |   1   7   1   1 |        1        7 |          230 |   -0.038580  |
 | 3 1 2 1 |   2   7   1   1 |        2        7 |          231 |    0.032938  |
 | 3 1 2 1 |   1   1   1   2 |        1        8 |          237 |    0.053445  |
 | 3 1 2 1 |   2   1   1   2 |        2        8 |          238 |   -0.033977  |
 | 3 1 2 1 |   1   2   1   2 |        1        9 |          244 |   -0.082057  |
 | 3 1 2 1 |   2   2   1   2 |        2        9 |          245 |   -0.050394  |
 | 2 1 3 1 |   1   1   1   2 |        3        8 |          239 |    0.063058  |
 | 2 1 3 1 |   1   2   1   2 |        3        9 |          246 |    0.046109  |
 | 2 1 3 1 |   4   2   1   2 |        6        9 |          249 |    0.084496  |
 +=============================================================================+


          Norm of Printed Amplitude Vector :             0.9930

          Printed all single excitations greater than 0.163719

          Printed all double excitations greater than 0.031205


 Analysis of the Coupled Cluster Excitation Vector Number :  2
 -------------------------------------------------------------

          Excitation Energy :                            17.4791 eV


          CC_PRAM:Overall Contribution of the Different Components
          --------------------------------------------------------



          Single Excitation Contribution :              96.4047 %

          Double Excitation Contribution :               3.5953 %

          ||T1||/||T2||                  :               5.1783

          Norm of Total Amplitude Vector :               0.9993


 +=============================================================================+
 | symmetry|  orbital index  |   Excitation Numbers             |   Amplitude  |
 |  Index  |   a   b   i   j |      NAI      NBJ |     NAIBJ    |              |
 +=============================================================================+
 | 2   3   |   2       1     |        4          |              |    0.966366  |
 +-----------------------------------------------------------------------------+
 | 1 2 3 1 |   5   4   1   2 |        9        9 |           97 |   -0.032087  |
 | 3 1 2 1 |   1   2   1   2 |        1        9 |          244 |    0.036941  |
 | 3 1 2 1 |   1   3   1   2 |        1       10 |          251 |   -0.034394  |
 | 3 1 2 1 |   2   3   1   2 |        2       10 |          252 |    0.036104  |
 | 3 1 2 1 |   1   4   1   2 |        1       11 |          258 |    0.040417  |
 | 3 1 2 1 |   2   4   1   2 |        2       11 |          259 |   -0.035510  |
 | 3 1 2 1 |   1   5   1   2 |        1       12 |          265 |   -0.056912  |
 | 3 1 2 1 |   2   5   1   2 |        2       12 |          266 |   -0.059033  |
 | 2 1 3 1 |   4   2   1   2 |        6        9 |          249 |   -0.038994  |
 | 2 1 3 1 |   1   4   1   2 |        3       11 |          260 |    0.059214  |
 | 2 1 3 1 |   1   5   1   2 |        3       12 |          267 |    0.045810  |
 | 2 1 3 1 |   4   5   1   2 |        6       12 |          270 |    0.077660  |
 +=============================================================================+


          Norm of Printed Amplitude Vector :             0.9806

          Printed all single excitations greater than 0.163643

          Printed all double excitations greater than 0.031602


 Analysis of the Coupled Cluster Excitation Vector Number :  3
 -------------------------------------------------------------

          Excitation Energy :                            31.7999 eV


          CC_PRAM:Overall Contribution of the Different Components
          --------------------------------------------------------



          Single Excitation Contribution :              96.4809 %

          Double Excitation Contribution :               3.5191 %

          ||T1||/||T2||                  :               5.2360

          Norm of Total Amplitude Vector :               0.9991


 +=============================================================================+
 | symmetry|  orbital index  |   Excitation Numbers             |   Amplitude  |
 |  Index  |   a   b   i   j |      NAI      NBJ |     NAIBJ    |              |
 +=============================================================================+
 | 2   3   |   3       1     |        5          |              |   -0.978104  |
 +-----------------------------------------------------------------------------+
 | 3 1 2 1 |   1   1   1   2 |        1        8 |          237 |   -0.074993  |
 | 3 1 2 1 |   1   2   1   2 |        1        9 |          244 |    0.080446  |
 | 3 1 2 1 |   2   2   1   2 |        2        9 |          245 |    0.033669  |
 | 2 1 3 1 |   1   1   1   2 |        3        8 |          239 |   -0.041244  |
 | 2 1 3 1 |   4   2   1   2 |        6        9 |          249 |   -0.053930  |
 | 2 1 3 1 |   1   4   1   2 |        3       11 |          260 |   -0.032099  |
 | 2 1 3 1 |   4   5   1   2 |        6       12 |          270 |   -0.042180  |
 | 2 2 3 2 |   4   1   1   1 |        6       15 |          291 |   -0.044850  |
 +=============================================================================+


          Norm of Printed Amplitude Vector :             0.9896

          Printed all single excitations greater than 0.163708

          Printed all double excitations greater than 0.031266


 Analysis of the Coupled Cluster Excitation Vector Number :  4
 -------------------------------------------------------------

          Excitation Energy :                            35.2054 eV


          CC_PRAM:Overall Contribution of the Different Components
          --------------------------------------------------------



          Single Excitation Contribution :              99.1187 %

          Double Excitation Contribution :               0.8813 %

          ||T1||/||T2||                  :              10.6050

          Norm of Total Amplitude Vector :               0.9974


 +=============================================================================+
 | symmetry|  orbital index  |   Excitation Numbers             |   Amplitude  |
 |  Index  |   a   b   i   j |      NAI      NBJ |     NAIBJ    |              |
 +=============================================================================+
 | 3   2   |   1       1     |        1          |              |   -0.992349  |
 +-----------------------------------------------------------------------------+
 | 3 2 1 1 |   1   2   1   1 |        1        2 |           12 |    0.028058  |
 | 3 2 1 1 |   2   3   1   2 |        2        8 |           79 |   -0.017954  |
 | 1 2 3 1 |   3   1   1   1 |        7        1 |            7 |    0.030287  |
 | 1 2 3 1 |   4   4   1   2 |        8        9 |           96 |   -0.027648  |
 | 1 2 3 1 |   7   4   1   2 |       11        9 |           99 |   -0.020383  |
 | 3 1 2 1 |   1   3   1   1 |        1        3 |          202 |    0.016962  |
 | 3 1 2 1 |   2   3   1   1 |        2        3 |          203 |   -0.016016  |
 | 3 1 2 1 |   1   2   1   2 |        1        9 |          244 |    0.016566  |
 | 2 1 3 1 |   4   3   1   1 |        6        3 |          207 |   -0.021134  |
 | 2 1 3 1 |   4   6   1   1 |        6        6 |          228 |   -0.020021  |
 +=============================================================================+


          Norm of Printed Amplitude Vector :             0.9948

          Printed all single excitations greater than 0.165931

          Printed all double excitations greater than 0.015646


 *******************************************************************************

 --------------------------
 Symmetry class Nr.:     4
 Multiplicity      :     3
 --------------------------

 Length of Excitation vectors in this class is:       716
 No Excitation Energies calculated in this symmetry class

 *******************************************************************

 Ground state energy is target 

 Ecorr =                    -76.26247732723570038615

 *******************************************************************
  

 *******************************************************************************
 *******************************************************************************
 *                                                                             *
 *                                                                             *
 *                   SUMMARY OF COUPLED CLUSTER CALCULATION                    *
 *                                                                             *
 *                                                                             *
 *******************************************************************************
 *******************************************************************************

                                                                                
                                                                                
            Total SCF   energy:                   -76.0085552989                
            Total MP2-R12/B energy:               -76.2604786891                
            Total CC2-R12/B energy:               -76.2624773272                
                                                                                
                                                                                
 +=============================================================================+
 |  sym. | Exci.  |        CC2-R12/B  Excitation energies            | ||T1||  |
 |(spin, |        +------------------------------------------------------------+
 | spat) |        |     Hartree    |       eV.      |     cm-1       |    %    |
 +=============================================================================+
 | ^1A1  |    1   |     0.3722282  |      10.12885  |     81694.656  |  96.46  |
 | ^1A1  |    2   |     0.6531961  |      17.77437  |    143359.961  |  97.65  |
 | ^1A1  |    3   |     0.7759570  |      21.11487  |    170302.886  |  96.35  |
 | ^1A1  |    4   |     0.9401502  |      25.58279  |    206339.113  |  97.76  |
 +-----------------------------------------------------------------------------+
 | ^1B2  |    1   |     0.4653245  |      12.66212  |    102126.918  |  96.37  |
 | ^1B2  |    2   |     0.5388019  |      14.66154  |    118253.343  |  97.41  |
 | ^1B2  |    3   |     0.7519487  |      20.46156  |    165033.654  |  96.34  |
 | ^1B2  |    4   |     0.9724616  |      26.46203  |    213430.640  |  96.97  |
 +-----------------------------------------------------------------------------+
 | ^1B1  |    1   |     0.2914701  |       7.93130  |     63970.291  |  96.29  |
 | ^1B1  |    2   |     0.6963090  |      18.94753  |    152822.149  |  95.96  |
 | ^1B1  |    3   |     1.0673229  |      29.04333  |    234250.300  |  98.47  |
 | ^1B1  |    4   |     1.1231369  |      30.56211  |    246500.064  |  98.89  |
 +-----------------------------------------------------------------------------+
 | ^1A2  |    1   |     0.3805394  |      10.35500  |     83518.748  |  96.49  |
 | ^1A2  |    2   |     0.6423460  |      17.47912  |    140978.640  |  96.40  |
 | ^1A2  |    3   |     1.1686250  |      31.79990  |    256483.539  |  96.48  |
 | ^1A2  |    4   |     1.2937739  |      35.20538  |    283950.546  |  99.12  |
 +=============================================================================+
                                                                                
                                                                                
     Total energies in Hartree:                                                 
             1 ^1A1       -75.8902490817                                        
             2 ^1A1       -75.6092812760                                        
             3 ^1A1       -75.4865202779                                        
             4 ^1A1       -75.3223271449                                        
             1 ^1B2       -75.7971528462                                        
             2 ^1B2       -75.7236754481                                        
             3 ^1B2       -75.5105286656                                        
             4 ^1B2       -75.2900157703                                        
             1 ^1B1       -75.9710072313                                        
             2 ^1B1       -75.5661683737                                        
             3 ^1B1       -75.1951544166                                        
             4 ^1B1       -75.1393403851                                        
             1 ^1A2       -75.8819379068                                        
             2 ^1A2       -75.6201313757                                        
             3 ^1A2       -75.0938523250                                        
             4 ^1A2       -74.9687034344                                        

  1 a.u. =        27.21138 eV.  
  1 a.u. =    219474.62934 cm-1.
  

 *******************************************************************************
 *******************************************************************************
 *                                                                             *
 *                                                                             *
 *                      END OF COUPLED CLUSTER CALCULATION                     *
 *                                                                             *
 *                                                                             *
 *******************************************************************************
 *******************************************************************************


 >>>> CPU and wall time for CC :      45.839      49.304

 
     Date and time (Linux)  : Sun Sep  8 21:10:04 2013
     Host name              : lpqlx131.ups-tlse.fr                    


                      .-------------------------------------.
                      | End of Coupled Cluster Section (CC) |
                      `-------------------------------------'

 >>>> Total CPU  time used in DALTON:  46.05 seconds
 >>>> Total wall time used in DALTON:  49.52 seconds

 
     Date and time (Linux)  : Sun Sep  8 21:10:04 2013
     Host name              : lpqlx131.ups-tlse.fr                    
