

     ************************************************************************
     *************** Dalton - An Electronic Structure Program ***************
     ************************************************************************

    This is output from DALTON (Release Dalton2013 patch 0)
   ----------------------------------------------------------------------------
    NOTE:
     
    Dalton is an experimental code for the evaluation of molecular
    properties using (MC)SCF, DFT, CI, and CC wave functions.
    The authors accept no responsibility for the performance of
    the code or for the correctness of the results.
     
    The code (in whole or part) is provided under a licence and
    is not to be reproduced for further distribution without
    the written permission of the authors or their representatives.
     
    See the home page "http://daltonprogram.org" for further information.
     
    If results obtained with this code are published,
    the appropriate citations would be both of:
     
       K. Aidas, C. Angeli, K. L. Bak, V. Bakken, R. Bast,
       L. Boman, O. Christiansen, R. Cimiraglia, S. Coriani,
       P. Dahle, E. K. Dalskov, U. Ekstroem, T. Enevoldsen,
       J. J. Eriksen, P. Ettenhuber, B. Fernandez, L. Ferrighi,
       H. Fliegl, L. Frediani, K. Hald, A. Halkier, C. Haettig,
       H. Heiberg, T. Helgaker, A. C. Hennum, H. Hettema,
       E. Hjertenaes, S. Hoest, I.-M. Hoeyvik, M. F. Iozzi,
       B. Jansik, H. J. Aa. Jensen, D. Jonsson, P. Joergensen,
       J. Kauczor, S. Kirpekar, T. Kjaergaard, W. Klopper,
       S. Knecht, R. Kobayashi, H. Koch, J. Kongsted, A. Krapp,
       K. Kristensen, A. Ligabue, O. B. Lutnaes, J. I. Melo,
       K. V. Mikkelsen, R. H. Myhre, C. Neiss, C. B. Nielsen,
       P. Norman, J. Olsen, J. M. H. Olsen, A. Osted,
       M. J. Packer, F. Pawlowski, T. B. Pedersen, P. F. Provasi,
       S. Reine, Z. Rinkevicius, T. A. Ruden, K. Ruud, V. Rybkin,
       P. Salek, C. C. M. Samson, A. Sanchez de Meras, T. Saue,
       S. P. A. Sauer, B. Schimmelpfennig, K. Sneskov,
       A. H. Steindal, K. O. Sylvester-Hvid, P. R. Taylor,
       A. M. Teale, E. I. Tellgren, D. P. Tew, A. J. Thorvaldsen,
       L. Thoegersen, O. Vahtras, M. A. Watson, D. J. D. Wilson,
       M. Ziolkowski and H. Agren.
       The Dalton quantum chemistry program system.
       WIREs Comput. Mol. Sci. 2013. doi: 10.1002/wcms.1172
    
    and
    
       Dalton, a Molecular Electronic Structure Program,
       Release DALTON2013.0 (2013), see http://daltonprogram.org
   ----------------------------------------------------------------------------

    Authors in alphabetical order (major contribution(s) in parenthesis):

  Kestutis Aidas,           Vilnius University,           Lithuania   (QM/MM)
  Celestino Angeli,         University of Ferrara,        Italy       (NEVPT2)
  Keld L. Bak,              UNI-C,                        Denmark     (AOSOPPA, non-adiabatic coupling, magnetic properties)
  Vebjoern Bakken,          University of Oslo,           Norway      (DALTON; geometry optimizer, symmetry detection)
  Radovan Bast,             KTH Stockholm                 Sweden      (DALTON installation and execution frameworks)
  Linus Boman,              NTNU,                         Norway      (Cholesky decomposition and subsystems)
  Ove Christiansen,         Aarhus University,            Denmark     (CC module)
  Renzo Cimiraglia,         University of Ferrara,        Italy       (NEVPT2)
  Sonia Coriani,            University of Trieste,        Italy       (CC module, MCD in RESPONS)
  Paal Dahle,               University of Oslo,           Norway      (Parallelization)
  Erik K. Dalskov,          UNI-C,                        Denmark     (SOPPA)
  Thomas Enevoldsen,        Univ. of Southern Denmark,    Denmark     (SOPPA)
  Janus J. Eriksen,         Aarhus University,            Denmark     (PE-MP2/SOPPA, TDA)
  Berta Fernandez,          U. of Santiago de Compostela, Spain       (doublet spin, ESR in RESPONS)
  Lara Ferrighi,            Aarhus University,            Denmark     (PCM Cubic response)
  Heike Fliegl,             University of Oslo,           Norway      (CCSD(R12))
  Luca Frediani,            UiT The Arctic U. of Norway,  Norway      (PCM)
  Bin Gao,                  UiT The Arctic U. of Norway,  Norway      (Gen1Int library)
  Christof Haettig,         Ruhr-University Bochum,       Germany     (CC module)
  Kasper Hald,              Aarhus University,            Denmark     (CC module)
  Asger Halkier,            Aarhus University,            Denmark     (CC module)
  Hanne Heiberg,            University of Oslo,           Norway      (geometry analysis, selected one-electron integrals)
  Trygve Helgaker,          University of Oslo,           Norway      (DALTON; ABACUS, ERI, DFT modules, London, and much more)
  Alf Christian Hennum,     University of Oslo,           Norway      (Parity violation)
  Hinne Hettema,            University of Auckland,       New Zealand (quadratic response in RESPONS; SIRIUS supersymmetry)
  Eirik Hjertenaes,         NTNU,                         Norway      (Cholesky decomposition)
  Maria Francesca Iozzi,    University of Oslo,           Norway      (RPA)
  Brano Jansik              Technical Univ. of Ostrava    Czech Rep.  (DFT cubic response)
  Hans Joergen Aa. Jensen,  Univ. of Southern Denmark,    Denmark     (DALTON; SIRIUS, RESPONS, ABACUS modules, London, and much more)
  Dan Jonsson,              UiT The Arctic U. of Norway,  Norway      (cubic response in RESPONS module)
  Poul Joergensen,          Aarhus University,            Denmark     (RESPONS, ABACUS, and CC modules)
  Joanna Kauczor,           Linkoeping University,        Sweden      (Complex polarization propagator (CPP) module)
  Sheela Kirpekar,          Univ. of Southern Denmark,    Denmark     (Mass-velocity & Darwin integrals)
  Wim Klopper,              KIT Karlsruhe,                Germany     (R12 code in CC, SIRIUS, and ABACUS modules)
  Stefan Knecht,            ETH Zurich,                   Switzerland (Parallel CI and MCSCF)
  Rika Kobayashi,           Australian National Univ.,    Australia   (DIIS in CC, London in MCSCF)
  Henrik Koch,              NTNU,                         Norway      (CC module, Cholesky decomposition)
  Jacob Kongsted,           Univ. of Southern Denmark,    Denmark     (Polarizable embedding, QM/MM)
  Andrea Ligabue,           University of Modena,         Italy       (CTOCD, AOSOPPA)
  Ola B. Lutnaes,           University of Oslo,           Norway      (DFT Hessian)
  Juan I. Melo,             University of Buenos Aires,   Argentina   (LRESC, Relativistic Effects on NMR Shieldings)
  Kurt V. Mikkelsen,        University of Copenhagen,     Denmark     (MC-SCRF and QM/MM)
  Rolf H. Myhre,            NTNU,                         Norway      (Cholesky, subsystems and ECC2)
  Christian Neiss,          Univ. Erlangen-Nuernberg,     Germany     (CCSD(R12))
  Christian B. Nielsen,     University of Copenhagen,     Denmark     (QM/MM)
  Patrick Norman,           Linkoeping University,        Sweden      (Cubic response and complex response in RESPONS)
  Jeppe Olsen,              Aarhus University,            Denmark     (SIRIUS CI/density modules)
  Jogvan Magnus H. Olsen,   Univ. of Southern Denmark,    Denmark     (Polarizable embedding, PE library, QM/MM)
  Anders Osted,             Copenhagen University,        Denmark     (QM/MM)
  Martin J. Packer,         University of Sheffield,      UK          (SOPPA)
  Filip Pawlowski,          Kazimierz Wielki University   Poland      (CC3)
  Thomas B. Pedersen,       University of Oslo,           Norway      (Cholesky decomposition)
  Patricio F. Provasi,      University of Northeastern,   Argentina   (Analysis of coupling constants in localized orbitals)
  Zilvinas Rinkevicius,     KTH Stockholm,                Sweden      (open-shell DFT, ESR)
  Elias Rudberg,            KTH Stockholm,                Sweden      (DFT grid and basis info)
  Torgeir A. Ruden,         University of Oslo,           Norway      (Numerical derivatives in ABACUS)
  Kenneth Ruud,             UiT The Arctic U. of Norway,  Norway      (DALTON; ABACUS magnetic properties and  much more)
  Pawel Salek,              KTH Stockholm,                Sweden      (DALTON; DFT code)
  Claire C. M. Samson       University of Karlsruhe       Germany     (Boys localization, r12 integrals in ERI)
  Alfredo Sanchez de Meras, University of Valencia,       Spain       (CC module, Cholesky decomposition)
  Trond Saue,               Paul Sabatier University,     France      (direct Fock matrix construction)
  Stephan P. A. Sauer,      University of Copenhagen,     Denmark     (SOPPA(CCSD), SOPPA prop., AOSOPPA, vibrational g-factors)
  Bernd Schimmelpfennig,    Forschungszentrum Karlsruhe,  Germany     (AMFI module)
  Kristian Sneskov,         Aarhus University,            Denmark     (QM/MM, PE-CC)
  Arnfinn H. Steindal,      UiT The Arctic U. of Norway,  Norway      (parallel QM/MM)
  K. O. Sylvester-Hvid,     University of Copenhagen,     Denmark     (MC-SCRF)
  Peter R. Taylor,          VLSCI/Univ. of Melbourne,     Australia   (Symmetry handling ABACUS, integral transformation)
  Andrew M. Teale,          University of Nottingham,     England     (DFT-AC, DFT-D)
  David P. Tew,             University of Bristol,        England     (CCSD(R12))
  Olav Vahtras,             KTH Stockholm,                Sweden      (triplet response, spin-orbit, ESR, TDDFT, open-shell DFT)
  David J. Wilson,          La Trobe University,          Australia   (DFT Hessian and DFT magnetizabilities)
  Hans Agren,               KTH Stockholm,                Sweden      (SIRIUS module, RESPONS, MC-SCRF solvation model)
 --------------------------------------------------------------------------------

     Date and time (Linux)  : Sun Sep  8 21:10:39 2013
     Host name              : lpqlx131.ups-tlse.fr                    

 * Work memory size             :    64000000 =  488.28 megabytes.

 * Directories for basis set searches:
   1) /home/bast/DALTON-2013.0-Source/build/test_ccsdr12_be
   2) /home/bast/DALTON-2013.0-Source/build/basis


Compilation information
-----------------------

 Who compiled             | bast
 Host                     | lpqlx131.ups-tlse.fr
 System                   | Linux-3.8.5-201.fc18.x86_64
 CMake generator          | Unix Makefiles
 Processor                | x86_64
 64-bit integers          | OFF
 MPI                      | OFF
 Fortran compiler         | /usr/bin/gfortran
 Fortran compiler version | GNU Fortran (GCC) 4.7.2 20121109 (Red Hat 4.7.2-8)
 C compiler               | /usr/bin/gcc
 C compiler version       | gcc (GCC) 4.7.2 20121109 (Red Hat 4.7.2-8)
 C++ compiler             | /usr/bin/g++
 C++ compiler version     | g++ (GCC) 4.7.2 20121109 (Red Hat 4.7.2-8)
 Static linking           | OFF
 Last Git revision        | f34203295a86316e27f9e7b44f9b6769c4a046c0
 Configuration time       | 2013-09-08 20:31:27.952056


   Content of the .dal input file
 ----------------------------------

**DALTON INPUT                                    
.RUN WAVE FUNCTION                                
*MOLBAS                                           
.R12AUX                                           
**INTEGRALS                                       
.R12                                              
**WAVE FUNCTIONS                                  
.CC                                               
*ORBITALS                                         
.MOSTART                                          
 H1DIAG                                           
.R12ORB                                           
 0 1 1 0 1 0 0 0                                  
.MOSTART                                          
 H1DIAG                                           
*CC INPUT                                         
.CC2                                              
.CCSD                                             
.PRINT                                            
 5                                                
.THRENR                                           
 1.0D-10                                          
.MAX IT                                           
 100                                              
*CCEXCI                                           
.THREXC                                           
 1.0D-08                                          
.NCCEXC                                           
 2 1 1 0 0 0 0 0                                  
*R12 INP                                          
.NO HYB                                           
.CC2                                              
 1B                                               
.NATVIR                                           
.CCVABKL                                          
**END OF DALTON INPUT                             


   Content of the .mol file
 ----------------------------

BASIS                                                                          
6-31G 6-311++G(3df,3pd)                                                        
Be                                                                             
                                                                               
    2  0 3  X  Y  Z                                                            
 1      4.    1                                                                
Be       0.0000000000000     0.0000000000000     0.0000000000000       *       
 2      4.    1                                                                
Be       0.0000000000000     0.0000000000000     0.0000000000000       *       


       *******************************************************************
       *********** Output from DALTON general input processing ***********
       *******************************************************************

 --------------------------------------------------------------------------------
   Overall default print level:    0
   Print level for DALTON.STAT:    1

    HERMIT 1- and 2-electron integral sections will be executed
    "Old" integral transformation used (limited to max 255 basis functions)
    Wave function sections will be executed (SIRIUS module)
 --------------------------------------------------------------------------------


 Changes of defaults for *MOLBAS:
 --------------------------------

 Print level in molecule setup (READIN):    1

 .R12AUX: Reading auxiliary basis sets from .mol file for R12



   ****************************************************************************
   *************** Output of molecule and basis set information ***************
   ****************************************************************************


    The two title cards from your ".mol" input:
    ------------------------------------------------------------------------
 1: Be                                                                      
 2:                                                                         
    ------------------------------------------------------------------------

  Atomic type no.    1
  --------------------
  Nuclear charge:   4.00000
  Number of symmetry independent centers:    1
  Number of basis sets to read;    1
  Basis set file used for this atomic type with Z =   4 :
     "/home/bast/DALTON-2013.0-Source/build/basis/6-31G"

  Info about the basis set file: your basis has no documentation.
  Basis set: 6-31G                                                                           

  Atomic type no.    2
  --------------------
  Nuclear charge:   4.00000
  Number of symmetry independent centers:    1
  This is an auxiliary basis for R12, MBSI:    2
  Basis set file used for this atomic type with Z =   4 :
     "/home/bast/DALTON-2013.0-Source/build/basis/6-311++G(3df,3pd)"

  Info about the basis set file: your basis has no documentation.
  Basis set: 6-311++G(3df,3pd)                                                               


                         SYMGRP: Point group information
                         -------------------------------

Point group: D2h

   * The point group was generated by:

      Reflection in the yz-plane
      Reflection in the xz-plane
      Reflection in the xy-plane

   * Group multiplication table

        |  E   C2z  C2y  C2x   i   Oxy  Oxz  Oyz
   -----+----------------------------------------
     E  |  E   C2z  C2y  C2x   i   Oxy  Oxz  Oyz
    C2z | C2z   E   C2x  C2y  Oxy   i   Oyz  Oxz
    C2y | C2y  C2x   E   C2z  Oxz  Oyz   i   Oxy
    C2x | C2x  C2y  C2z   E   Oyz  Oxz  Oxy   i 
     i  |  i   Oxy  Oxz  Oyz   E   C2z  C2y  C2x
    Oxy | Oxy   i   Oyz  Oxz  C2z   E   C2x  C2y
    Oxz | Oxz  Oyz   i   Oxy  C2y  C2x   E   C2z
    Oyz | Oyz  Oxz  Oxy   i   C2x  C2y  C2z   E 

   * Character table

        |  E   C2z  C2y  C2x   i   Oxy  Oxz  Oyz
   -----+----------------------------------------
    Ag  |   1    1    1    1    1    1    1    1
    B3u |   1   -1   -1    1   -1    1    1   -1
    B2u |   1   -1    1   -1   -1    1   -1    1
    B1g |   1    1   -1   -1    1    1   -1   -1
    B1u |   1    1   -1   -1   -1   -1    1    1
    B2g |   1   -1    1   -1    1   -1    1   -1
    B3g |   1   -1   -1    1    1   -1   -1    1
    Au  |   1    1    1    1   -1   -1   -1   -1

   * Direct product table

        | Ag   B3u  B2u  B1g  B1u  B2g  B3g  Au 
   -----+----------------------------------------
    Ag  | Ag   B3u  B2u  B1g  B1u  B2g  B3g  Au 
    B3u | B3u  Ag   B1g  B2u  B2g  B1u  Au   B3g
    B2u | B2u  B1g  Ag   B3u  B3g  Au   B1u  B2g
    B1g | B1g  B2u  B3u  Ag   Au   B3g  B2g  B1u
    B1u | B1u  B2g  B3g  Au   Ag   B3u  B2u  B1g
    B2g | B2g  B1u  Au   B3g  B3u  Ag   B1g  B2u
    B3g | B3g  Au   B1u  B2g  B2u  B1g  Ag   B3u
    Au  | Au   B3g  B2g  B1u  B1g  B2u  B3u  Ag 


                                 Isotopic Masses
                                 ---------------

                           Be          9.012183
                           Be          0.000000

                       Total mass:     9.012183 amu
                       Natural abundance:   0.000 %

 Center-of-mass coordinates (a.u.):    0.000000    0.000000    0.000000


  Atoms and basis sets
  --------------------

  Number of atom types :    2
  Total number of atoms:    2

  Basis set 1 refers to the basis "6-31G" from the basis set library.

  Basis set 2 refers to the basis "6-311++G(3df,3pd)" from the basis set library.

  label  basis   atoms  charge   prim  cont     basis
  ------------------------------------------------------------------------------
  Be       1       1    4.0000    22     9      [10s4p|3s2p]                                       
  Be       2       1    0.0000    52    39      [12s6p3d1f|5s4p3d1f]                               
  ------------------------------------------------------------------------------
  total:           2    4.0000    74    48
  ------------------------------------------------------------------------------
  Spherical harmonic basis used.

  Threshold for neglecting AO integrals:  1.00D-12


  Cartesian Coordinates (a.u.)
  ----------------------------

  Total number of coordinates:    6
  Be      :     1  x   0.0000000000    2  y   0.0000000000    3  z   0.0000000000
  Be      :     4  x   0.0000000000    5  y   0.0000000000    6  z   0.0000000000


  Symmetry Coordinates
  --------------------

  Number of coordinates in each symmetry:     0    2    2    0    2    0    0    0

  Symmetry  B3u ( 2)

    1   Be    x    1
    2   Be    x    4

  Symmetry  B2u ( 3)

    3   Be    y    2
    4   Be    y    5

  Symmetry  B1u ( 5)

    5   Be    z    3
    6   Be    z    6


  Bond distances (Angstrom):
  --------------------------

                  atom 1     atom 2       distance
                  ------     ------       --------




 Principal moments of inertia (u*A**2) and principal axes
 --------------------------------------------------------

   IA       0.000000          1.000000    0.000000    0.000000
   IB       0.000000          0.000000    1.000000    0.000000
   IC       0.000000          0.000000    0.000000    1.000000


 Rotational constants
 --------------------

 All are zero as the "molecule" is an atom!



@  Nuclear repulsion energy :    0.000000000000 Hartree


  Symmetry Orbitals
  -----------------

  Number of orbitals in each symmetry:          14    8    8    3    8    3    3    1

  Number of main orbitals in each symmetry:           3    2    2    0    2    0    0    0
  Number of auxiliary functions in each symmetry:    11    6    6    3    6    3    3    1


  Symmetry  Ag ( 1)

    1     Be   M   1s         1
    2     Be   M   1s         2
    3     Be   M   1s         3
    4     Be   A   1s        10
    5     Be   A   1s        11
    6     Be   A   1s        12
    7     Be   A   1s        13
    8     Be   A   1s        14
    9     Be   A   3d0       29
   10     Be   A   3d2+      31
   11     Be   A   3d0       34
   12     Be   A   3d2+      36
   13     Be   A   3d0       39
   14     Be   A   3d2+      41


  Symmetry  B3u( 2)

   15     Be   M   2px        4
   16     Be   M   2px        7
   17     Be   A   2px       15
   18     Be   A   2px       18
   19     Be   A   2px       21
   20     Be   A   2px       24
   21     Be   A   4f1+      46
   22     Be   A   4f3+      48


  Symmetry  B2u( 3)

   23     Be   M   2py        5
   24     Be   M   2py        8
   25     Be   A   2py       16
   26     Be   A   2py       19
   27     Be   A   2py       22
   28     Be   A   2py       25
   29     Be   A   4f3-      42
   30     Be   A   4f1-      44


  Symmetry  B1g( 4)

   31     Be   A   3d2-      27
   32     Be   A   3d2-      32
   33     Be   A   3d2-      37


  Symmetry  B1u( 5)

   34     Be   M   2pz        6
   35     Be   M   2pz        9
   36     Be   A   2pz       17
   37     Be   A   2pz       20
   38     Be   A   2pz       23
   39     Be   A   2pz       26
   40     Be   A   4f0       45
   41     Be   A   4f2+      47


  Symmetry  B2g( 6)

   42     Be   A   3d1+      30
   43     Be   A   3d1+      35
   44     Be   A   3d1+      40


  Symmetry  B3g( 7)

   45     Be   A   3d1-      28
   46     Be   A   3d1-      33
   47     Be   A   3d1-      38


  Symmetry  Au ( 8)

   48     Be   A   4f2-      43

  Number of floating/multiple basis set orbitals :    1

  Symmetries of electric field:  B3u(2)  B2u(3)  B1u(5)

  Symmetries of magnetic field:  B3g(7)  B2g(6)  B1g(4)


                     .---------------------------------------.
                     | Starting in Integral Section (HERMIT) |
                     `---------------------------------------'



    *************************************************************************
    ****************** Output from HERMIT input processing ******************
    *************************************************************************


 Default print level:        1

 * Nuclear model: Point charge

 Calculation of one- and two-electron Hamiltonian integrals.

 The following one-electron property integrals are calculated as requested:
          - overlap integrals
          - Cartesian multipole moment integrals of orders 2 and lower

 Center of mass  (bohr):      0.000000000000      0.000000000000      0.000000000000
 Operator center (bohr):      0.000000000000      0.000000000000      0.000000000000
 Gauge origin    (bohr):      0.000000000000      0.000000000000      0.000000000000
 Dipole origin   (bohr):      0.000000000000      0.000000000000      0.000000000000


     ************************************************************************
     ************************** Output from HERINT **************************
     ************************************************************************


 Threshold for neglecting two-electron integrals:  1.00D-12
 Number of two-electron integrals written:         307 (  0.0% )
 Megabytes written:                              0.007

 >>>> Total CPU  time used in HERMIT:   0.02 seconds
 >>>> Total wall time used in HERMIT:   0.02 seconds


                        .----------------------------------.
                        | End of Integral Section (HERMIT) |
                        `----------------------------------'



                   .--------------------------------------------.
                   | Starting in Wave Function Section (SIRIUS) |
                   `--------------------------------------------'

 NCCEXCI for singlet:           2           1           1           0           0           0           0           0

 >>>> Detected R12 input:
 Direct Fock matrix formation switched on!
 Scale factors for CC excitations manifolds:
 for bra states (projection manifold):   1.0000000000000000     
 for ket states (operator manifold)  :   1.0000000000000000     

 **********************************************************************
 *SIRIUS* a direct, restricted step, second order MCSCF program       *
 **********************************************************************

 
     Date and time (Linux)  : Sun Sep  8 21:10:39 2013
     Host name              : lpqlx131.ups-tlse.fr                    

 Title lines from ".mol" input file:
     Be                                                                      
                                                                             

 Print level on unit LUPRI =   2 is   0
 Print level on unit LUW4  =   2 is   5

@    (Integral direct) CC calculation.

@    This is a combination run starting with
@              a restricted, closed shell Hartree-Fock calculation

 Fock matrices are calculated directly without use of integrals on disk.

 Initial molecular orbitals are obtained according to
 ".MOSTART H1DIAG" input option

     Wave function specification
     ============================

     For the specification of the Coupled Cluster: see later.

@    For the wave function of type :      >>> CC <<<
@    Number of closed shell electrons           4
@    Number of electrons in active shells       0
@    Total charge of the molecule               0

@    Spin multiplicity and 2 M_S                1         0
     Total number of symmetries                 8
@    Reference state symmetry                   1

     Orbital specifications
     ======================
     Abelian symmetry species          All |    1    2    3    4    5    6    7    8
                                       --- |  ---  ---  ---  ---  ---  ---  ---  ---
     Total number of orbitals            9 |    3    2    2    0    2    0    0    0
     Number of basis functions          48 |   14    8    8    3    8    3    3    1

      ** Automatic occupation of RHF orbitals **

      -- Initial occupation of symmetries is determined from diagonal of H1 matrix.           
      -- Initial occupation of symmetries is :
@    Occupied SCF orbitals               2 |    2    0    0    0    0    0    0    0

     Maximum number of Fock   iterations      0
     Maximum number of DIIS   iterations     60
     Maximum number of QC-SCF iterations     60
     Threshold for SCF convergence     1.00D-06


 Changes of defaults for CC:
 ---------------------------

 -Excitation energies calculated
  


 >>>>> DIIS optimization of Hartree-Fock <<<<<

 C1-DIIS algorithm; max error vectors =    2

 Automatic occupation of symmetries with   4 electrons.

 Iter     Total energy    Error norm  Delta(E)    SCF occupation
 -----------------------------------------------------------------------------
   1  Screening settings (-IFTHRS, DIFDEN)   -6    T

***  INFO  GETGAB: GABAOXXX not found on AOPROPER. Regenerating.
@  1  -14.3542839843       8.47D-01  -1.44D+01     2   0   0   0   0   0   0   0
      Virial theorem: -V/T =      1.925448
@      MULPOP Be     -0.00; 
 -----------------------------------------------------------------------------
   2  Screening settings (-IFTHRS, DIFDEN)   -6    T
@  2  -14.5538027779       2.41D-01  -2.00D-01     2   0   0   0   0   0   0   0
      Virial theorem: -V/T =      1.978310
@      MULPOP Be      0.00; 
 -----------------------------------------------------------------------------
   3  Screening settings (-IFTHRS, DIFDEN)   -8    F
@  3  -14.5667580336       6.49D-03  -1.30D-02     2   0   0   0   0   0   0   0
      Virial theorem: -V/T =      1.992706
@      MULPOP Be      0.00; 
 -----------------------------------------------------------------------------
   4  Screening settings (-IFTHRS, DIFDEN)  -11    F
@  4  -14.5667640307       2.82D-04  -6.00D-06     2   0   0   0   0   0   0   0
      Virial theorem: -V/T =      1.992373
@      MULPOP Be      0.00; 
 -----------------------------------------------------------------------------
   5  Screening settings (-IFTHRS, DIFDEN)  -11    T
@  5  -14.5667640333       3.77D-05  -2.55D-09     2   0   0   0   0   0   0   0
      Virial theorem: -V/T =      1.992370
@      MULPOP Be      0.00; 
 -----------------------------------------------------------------------------
   6  Screening settings (-IFTHRS, DIFDEN)  -11    T
@  6  -14.5667640335       6.95D-06  -2.44D-10     2   0   0   0   0   0   0   0
      Virial theorem: -V/T =      1.992371
@      MULPOP Be     -0.00; 
 -----------------------------------------------------------------------------
   7  Screening settings (-IFTHRS, DIFDEN)  -11    T
@  7  -14.5667640335       4.39D-07  -1.04D-11     2   0   0   0   0   0   0   0

@ *** DIIS converged in   7 iterations !
@     Converged SCF energy, gradient:    -14.566764033510    4.39D-07
    - total time used in SIRFCK :              0.00 seconds


 *** SCF orbital energy analysis ***

 Only the five lowest virtual orbital energies printed in each symmetry.

 Number of electrons :    4
 Orbital occupations :    2    0    0    0    0    0    0    0

 Sym       Hartree-Fock orbital energies

  1     -4.70689038    -0.30129536     0.43975433

  2      0.08243537     0.46493106

  3      0.08243537     0.46493106

  5      0.08243537     0.46493106

    E(LUMO) :     0.08243537 au (symmetry 5)
  - E(HOMO) :    -0.30129536 au (symmetry 1)
  ------------------------------------------
    gap     :     0.38373073 au

 >>> Writing SIRIFC interface file <<<

  Canonical primary and secondary basis sets
  ISYM       NORB1 MBAS1       NORB2 MBAS2
     1           3     3          11    11
     2           2     2           6     6
     3           2     2           6     6
     4           0     0           3     3
     5           2     2           6     6
     6           0     0           3     3
     7           0     0           3     3
     8           0     0           1     1

 Computation of exchange matrix done [6]

 AUXILIARY BASIS LOW EIGENVALUES
 ISYM         EIGENVALUE
   1      0.000493470419
   2      0.000078524207
   3      0.000078524207
   4      0.003159113569
   5      0.000078524207
   6      0.003159113569
   7      0.003159113569
   8      0.018937389076

 >>>> CPU and wall time for SCF :       0.026       0.027


                       .-----------------------------------.
                       | >>> Final results from SIRIUS <<< |
                       `-----------------------------------'


@    Spin multiplicity:           1
@    Spatial symmetry:            1
@    Total charge of molecule:    0

@    Final HF energy:             -14.566764033510                 
@    Nuclear repulsion:             0.000000000000
@    Electronic energy:           -14.566764033510

@    Final gradient norm:           0.000000438797

 
     Date and time (Linux)  : Sun Sep  8 21:10:39 2013
     Host name              : lpqlx131.ups-tlse.fr                    

 (Only coefficients >0.0100 are printed.)

 Molecular orbitals for symmetry species  1
 ------------------------------------------

    Orbital         1        2        3
   1 Be  :1s     0.9980  -0.2227  -0.0034
   2 Be  :1s     0.0161   0.2888  -2.0172
   3 Be  :1s    -0.0055   0.7610   1.8983

 Molecular orbitals for symmetry species  2
 ------------------------------------------

    Orbital         1
   1 Be  :2px    0.2642
   2 Be  :2px    0.8038

 Molecular orbitals for symmetry species  3
 ------------------------------------------

    Orbital         1
   1 Be  :2py    0.2642
   2 Be  :2py    0.8038

 Molecular orbitals for symmetry species  5
 ------------------------------------------

    Orbital         1
   1 Be  :2pz    0.2642
   2 Be  :2pz    0.8038



 >>>> Total CPU  time used in SIRIUS :      0.03 seconds
 >>>> Total wall time used in SIRIUS :      0.03 seconds

 
     Date and time (Linux)  : Sun Sep  8 21:10:39 2013
     Host name              : lpqlx131.ups-tlse.fr                    


                     .---------------------------------------.
                     | End of Wave Function Section (SIRIUS) |
                     `---------------------------------------'



                    .------------------------------------------.
                    | Starting in Coupled Cluster Section (CC) |
                    `------------------------------------------'

  

 *******************************************************************************
 *******************************************************************************
 *                                                                             *
 *                                                                             *
 *                    START OF COUPLED CLUSTER CALCULATION                     *
 *                                                                             *
 *                                                                             *
 *******************************************************************************
 *******************************************************************************


 LWORK =        64000000

 R12-NATVIR: Nat. occ. numbers after ordering: symmetry=           1

               Column   1
       1       0.00208127
    ==== End of matrix output ====
 R12-NATVIR: Nat. occ. numbers after ordering: symmetry=           2

               Column   1
       1       0.01657813
       2       0.00032719
    ==== End of matrix output ====
 R12-NATVIR: Nat. occ. numbers after ordering: symmetry=           3

               Column   1
       1       0.01657813
       2       0.00032719
    ==== End of matrix output ====
 R12-NATVIR: Nat. occ. numbers after ordering: symmetry=           4
 This block is empty
 R12-NATVIR: Nat. occ. numbers after ordering: symmetry=           5

               Column   1
       1       0.01657813
       2       0.00032719
    ==== End of matrix output ====
 R12-NATVIR: Nat. occ. numbers after ordering: symmetry=           6
 This block is empty
 R12-NATVIR: Nat. occ. numbers after ordering: symmetry=           7
 This block is empty
 R12-NATVIR: Nat. occ. numbers after ordering: symmetry=           8
 This block is empty

 R12-NATVIR: Fock-Eigenvalues after ordering: symmetry=           1
 This block is empty

 R12-NATVIR: Fock-Eigenvalues after ordering: symmetry=           2

               Column   1
       1       0.12541860
    ==== End of matrix output ====

 R12-NATVIR: Fock-Eigenvalues after ordering: symmetry=           3

               Column   1
       1       0.12541860
    ==== End of matrix output ====

 R12-NATVIR: Fock-Eigenvalues after ordering: symmetry=           4
 This block is empty

 R12-NATVIR: Fock-Eigenvalues after ordering: symmetry=           5

               Column   1
       1       0.12541860
    ==== End of matrix output ====

 R12-NATVIR: Fock-Eigenvalues after ordering: symmetry=           6
 This block is empty

 R12-NATVIR: Fock-Eigenvalues after ordering: symmetry=           7
 This block is empty

 R12-NATVIR: Fock-Eigenvalues after ordering: symmetry=           8
 This block is empty

 R12-NATVIR: MO coefficient matrix of semi-natural virtual R12-orbitals:
 symmetry=           2

               Column   1
       1       0.69116422
       2       0.39553892
    ==== End of matrix output ====
 symmetry=           3

               Column   1
       1       0.69116422
       2       0.39553892
    ==== End of matrix output ====
 symmetry=           5

               Column   1
       1       0.69116422
       2       0.39553892
    ==== End of matrix output ====


 CCR12 ANSATZ =   1

 CCR12 APPROX =   7

   NRHF   :       2       1       1       0       1       0       0       0
   NRHFS  :       2       1       1       0       1       0       0       0
   NORB1  :       3       2       2       0       2       0       0       0
   NORB2  :      11       6       6       3       6       3       3       1

 Number of primary orbitals             :            9
 Number of secondary orbitals           :           39
 Total number of orbitals               :           48
 Total number of basis functions        :           48
 Number of (i|p') integrals             :           52
 Number of (i|u') integrals             :           52
 Number of (Ip'|1/r12|jL) integrals     :            0
 Number of (ip'|1/r12|jq') integrals    :         4270
 Number of (ip'|r12|jq') integrals      :         4270
 Number of (ip'|[T1,r12]|jq') integrals :         8300
 Threshold for R12 contributions            =  0.00000    
 Threshold for singular value decomposition = 0.100000E-11

 The B matrix is transformed into an orthogonal basis
 and inverted by diagonalization

 ******************************************************************************
 The MP2-R12/A and MP2-R12/B energies are computed as described in:
 W. Klopper and C. C. M. Samson, J. Chem. Phys. 116, 6397-6410 (2002).
 ------------------------------------------------------------------------------
 Ansatz 1 is used and results are printed for approximation B.       
 ******************************************************************************

 Core memory required by CCSD_R12 :          30367  (double words)

 Computation of (ip'|r12|jq') integrals done
 >>>  Time used in R  [6]     is   0.31 seconds
 Backtransformation of (ip'|r12|jq') integrals done
 Computation of V^aj_kl intermediate done

 >>> Time used for V^aj_kl is    0.00 seconds

 Computation of (ip'|1/r12|jq') integrals done
 >>>  Time used in 1/R[5]     is   0.11 seconds
 Computation of (ip'|r12|jq')X(p'r')(kr'|r12|lq') integrals done
 Computation of (i'p'|r12|jq') integrals done
 >>>  Time used in R  [6]     is   0.31 seconds
 Computation of (ip'|[T,r12]|jq') integrals done
 >>>  Time used in T,R[5]     is   0.13 seconds


                 +-----------------------------------------------+
                 ! MP2-R12 ansatz := (1 - P1 - P2 + P1*P2) * R12 !
                 +-----------------------------------------------+


 SECOND-ORDER PAIR ENERGIES:

                    1   -0.000308990    0.000000000
                    2   -0.000607236   -0.000127594
                    3   -0.023267191    0.000000000

 MP2 =   -0.024311011   -0.024183417   -0.000127594


                         +--------------------------------+
                         ! Auxiliary-basis MP2-R12 method !
                         +--------------------------------+


 SECOND-ORDER R12/B PAIR ENERGIES:

   1   -0.000308990   -0.029701365    0.000000000   -0.000000000     9.45131         10.2778    
   2   -0.000607236   -0.002507831   -0.000127594   -0.003042215     5.04571         5.87224    
   3   -0.023267191   -0.029766068    0.000000000   -0.000000000    0.640117         1.46664    

       -0.024183417   -0.061975264   -0.000127594   -0.003042215

              MP2-R12/B   correlation energy =   -0.065017479
 Time for MP2-R12 part cpu :  0.86399999999999988     
 Time for MP2-R12 part wall:  0.87099999189376831     
 Preparing R12 V-interm. ... ONEAUX= F
 Time used for V^albe_kl cpu:   5.6000000000000050E-002
 Time used for V^albe_kl wall:   5.5999994277954102E-002

   

 *******************************************************************
 *                                                                 *
 *<<<<<<<<<<                                             >>>>>>>>>>*
 *<<<<<<<<<< OUTPUT FROM COUPLED CLUSTER ENERGY PROGRAM  >>>>>>>>>>*
 *<<<<<<<<<<                                             >>>>>>>>>>*
 *                                                                 *
 *******************************************************************


             The Direct Coupled Cluster Energy Program
             -----------------------------------------


          Number of t1 amplitudes                 :         2
          Number of t2 amplitudes                 :        33
          Number of t2' amplitudes for R12 part   :        19
          Total number of amplitudes in ccsd      :        54



                        +---------------------------------+
                        ! Largest amplitudes in MP2 guess !
                        +---------------------------------+



          CC_PRAM:Overall Contribution of the Different Components
          --------------------------------------------------------



          Single Excitation Contribution :               0.0000 %

          Double Excitation Contribution :             100.0000 %

          ||T1||/||T2||                  :               0.0000

          Norm of Total Amplitude Vector :               0.1565


 +=============================================================================+
 | symmetry|  orbital index  |   Excitation Numbers             |   Amplitude  |
 |  Index  |   a   b   i   j |      NAI      NBJ |     NAIBJ    |              |
 +=============================================================================+
 +-----------------------------------------------------------------------------+
 | 1 1 1 1 |   1   1   2   2 |        2        2 |            3 |   -0.032176  |
 | 2 2 1 1 |   1   1   2   2 |        3        3 |            9 |   -0.082134  |
 | 2 2 1 1 |   2   1   2   2 |        4        3 |           12 |   -0.024773  |
 | 2 2 1 1 |   2   2   2   2 |        4        4 |           13 |   -0.020680  |
 | 3 3 1 1 |   1   1   2   2 |        3        3 |           19 |   -0.082134  |
 | 3 3 1 1 |   2   1   2   2 |        4        3 |           22 |   -0.024773  |
 | 3 3 1 1 |   2   2   2   2 |        4        4 |           23 |   -0.020680  |
 | 5 5 1 1 |   1   1   2   2 |        3        3 |           29 |   -0.082134  |
 | 5 5 1 1 |   2   1   2   2 |        4        3 |           32 |   -0.024773  |
 | 5 5 1 1 |   2   2   2   2 |        4        4 |           33 |   -0.020680  |
 +=============================================================================+


          Norm of Printed Amplitude Vector :             0.1562

          Printed all single excitations greater than 0.010000

          Printed all double excitations greater than 0.020000
 Iter.  1: Coupled cluster MP2-R12/B energy :     -14.6317815120235952
     Conventional correlation energy:    -0.0243110106762856
     R12 correlation energy         :    -0.0407064678377187
     Total correlation energy       :    -0.0650174785140043


       Iteration no.:  1
       -----------------

       Time used in   RHS - TOTAL  :       0.00 seconds
       Norm^2 of t1am   after ccvec:        0.0000000000D+00
       Norm^2 of t2am   after ccvec:        0.2448231936D-01
       Norm^2 of omega1 after ccvec:        0.1920907626D-03
       Norm^2 of omega2 after ccvec:        0.8425943507D-34
       Norm^2 of r12am     in NXTAM:        0.1072117768D+00
       Norm^2 of Omegar12  in NXTAM:        0.2011271228D-28
 Iter.  1: Coupled cluster CC2-R12/B energy :     -14.6317657917985073
     Conventional correlation energy:    -0.0242952904511977
     R12 correlation energy         :    -0.0407064678377187
     Total correlation energy       :    -0.0650017582889164


       Iteration no.:  2
       -----------------

       Time used in   RHS - TOTAL  :       0.00 seconds
       Norm^2 of t1am   after ccvec:        0.3274483716D-03
       Norm^2 of t2am   after ccvec:        0.2448231936D-01
       Norm^2 of omega1 after ccvec:        0.1038049871D-04
       Norm^2 of omega2 after ccvec:        0.1014732589D-04
       Norm^2 of r12am     in NXTAM:        0.1072117768D+00
       Norm^2 of Omegar12  in NXTAM:        0.1613347948D-05
 Iter.  2: Coupled cluster CC2-R12/B energy :     -14.6320331920181932
     Conventional correlation energy:    -0.0243867681203032
     R12 correlation energy         :    -0.0408823903882998
     Total correlation energy       :    -0.0652691585086029


       Iteration no.:  3
       -----------------

       Time used in   RHS - TOTAL  :       0.00 seconds
       Norm^2 of t1am   after ccvec:        0.4197959335D-03
       Norm^2 of t2am   after ccvec:        0.2452231286D-01
       Norm^2 of omega1 after ccvec:        0.5143462826D-05
       Norm^2 of omega2 after ccvec:        0.3405308235D-05
       Norm^2 of r12am     in NXTAM:        0.1115032658D+00
       Norm^2 of Omegar12  in NXTAM:        0.5454876702D-06
 Iter.  3: Coupled cluster CC2-R12/B energy :     -14.6324485352103277
     Conventional correlation energy:    -0.0245273494277871
     R12 correlation energy         :    -0.0411571522729494
     Total correlation energy       :    -0.0656845017007366


       Iteration no.:  4
       -----------------

       Time used in   RHS - TOTAL  :       0.00 seconds
       Norm^2 of t1am   after ccvec:        0.6564136116D-03
       Norm^2 of t2am   after ccvec:        0.2459360571D-01
       Norm^2 of omega1 after ccvec:        0.5311360151D-09
       Norm^2 of omega2 after ccvec:        0.6114759483D-09
       Norm^2 of r12am     in NXTAM:        0.1185819821D+00
       Norm^2 of Omegar12  in NXTAM:        0.2700202755D-10
 Iter.  4: Coupled cluster CC2-R12/B energy :     -14.6324489557043105
     Conventional correlation energy:    -0.0245279831203078
     R12 correlation energy         :    -0.0411569390744118
     Total correlation energy       :    -0.0656849221947196


       Iteration no.:  5
       -----------------

       Time used in   RHS - TOTAL  :       0.00 seconds
       Norm^2 of t1am   after ccvec:        0.6562863017D-03
       Norm^2 of t2am   after ccvec:        0.2459470362D-01
       Norm^2 of omega1 after ccvec:        0.3493858079D-12
       Norm^2 of omega2 after ccvec:        0.2382734817D-11
       Norm^2 of r12am     in NXTAM:        0.1185996593D+00
       Norm^2 of Omegar12  in NXTAM:        0.2098356927D-12
 Iter.  5: Coupled cluster CC2-R12/B energy :     -14.6324488466560574
     Conventional correlation energy:    -0.0245279219917194
     R12 correlation energy         :    -0.0411568911547472
     Total correlation energy       :    -0.0656848131464665


       Iteration no.:  6
       -----------------

       Time used in   RHS - TOTAL  :       0.00 seconds
       Norm^2 of t1am   after ccvec:        0.6562185223D-03
       Norm^2 of t2am   after ccvec:        0.2459458579D-01
       Norm^2 of omega1 after ccvec:        0.1083246262D-14
       Norm^2 of omega2 after ccvec:        0.9453170533D-14
       Norm^2 of r12am     in NXTAM:        0.1185970729D+00
       Norm^2 of Omegar12  in NXTAM:        0.1197458901D-14
 Iter.  6: Coupled cluster CC2-R12/B energy :     -14.6324488401011834
     Conventional correlation energy:    -0.0245279182041198
     R12 correlation energy         :    -0.0411568883874721
     Total correlation energy       :    -0.0656848065915919


       Iteration no.:  7
       -----------------

       Time used in   RHS - TOTAL  :       0.00 seconds
       Norm^2 of t1am   after ccvec:        0.6562205284D-03
       Norm^2 of t2am   after ccvec:        0.2459457626D-01
       Norm^2 of omega1 after ccvec:        0.7040934272D-19
       Norm^2 of omega2 after ccvec:        0.4059755082D-17
       Norm^2 of r12am     in NXTAM:        0.1185969165D+00
       Norm^2 of Omegar12  in NXTAM:        0.6318448676D-18
 Iter.  7: Coupled cluster CC2-R12/B energy :     -14.6324488402848978
     Conventional correlation energy:    -0.0245279182923586
     R12 correlation energy         :    -0.0411568884829493
     Total correlation energy       :    -0.0656848067753079


       Iteration no.:  8
       -----------------

       Time used in   RHS - TOTAL  :       0.00 seconds
       Norm^2 of t1am   after ccvec:        0.6562205220D-03
       Norm^2 of t2am   after ccvec:        0.2459457649D-01
       Norm^2 of omega1 after ccvec:        0.1218866545D-21
       Norm^2 of omega2 after ccvec:        0.3788117185D-20
       Norm^2 of r12am     in NXTAM:        0.1185969205D+00
       Norm^2 of Omegar12  in NXTAM:        0.5918048258D-21
 Iter.  8: Coupled cluster CC2-R12/B energy :     -14.6324488402864752
     Conventional correlation energy:    -0.0245279182931242
     R12 correlation energy         :    -0.0411568884837596
     Total correlation energy       :    -0.0656848067768837


 CC2-R12/B energy converged to within   0.10D-09 is          -14.632448840286
 Final 2-norm of the CC vector function:  6.25300235D-11
 R12       energy converged to within   0.10D-09 is     -0.041156888


                    +------------------------------------------+
                    ! Largest amplitudes in converged solution !
                    +------------------------------------------+



          CC_PRAM:Overall Contribution of the Different Components
          --------------------------------------------------------



          Single Excitation Contribution :               2.5988 %

          Double Excitation Contribution :              97.4012 %

          ||T1||/||T2||                  :               0.1633

          Tau1 diagnostic                :               0.0128

          Norm of Total Amplitude Vector :               0.1589


 +=============================================================================+
 | symmetry|  orbital index  |   Excitation Numbers             |   Amplitude  |
 |  Index  |   a   b   i   j |      NAI      NBJ |     NAIBJ    |              |
 +=============================================================================+
 | 1   1   |   1       2     |        2          |              |   -0.025607  |
 +-----------------------------------------------------------------------------+
 | 1 1 1 1 |   1   1   2   2 |        2        2 |            3 |   -0.031464  |
 | 2 2 1 1 |   1   1   2   2 |        3        3 |            9 |   -0.081727  |
 | 2 2 1 1 |   2   1   2   2 |        4        3 |           12 |   -0.026288  |
 | 2 2 1 1 |   2   2   2   2 |        4        4 |           13 |   -0.021658  |
 | 3 3 1 1 |   1   1   2   2 |        3        3 |           19 |   -0.081727  |
 | 3 3 1 1 |   2   1   2   2 |        4        3 |           22 |   -0.026288  |
 | 3 3 1 1 |   2   2   2   2 |        4        4 |           23 |   -0.021658  |
 | 5 5 1 1 |   1   1   2   2 |        3        3 |           29 |   -0.081727  |
 | 5 5 1 1 |   2   1   2   2 |        4        3 |           32 |   -0.026288  |
 | 5 5 1 1 |   2   2   2   2 |        4        4 |           33 |   -0.021658  |
 +=============================================================================+


          Norm of Printed Amplitude Vector :             0.1586

          Printed all single excitations greater than 0.016121

          Printed all double excitations greater than 0.019738





             +-------------------------------------------------------+
             ! Final results from the Coupled Cluster energy program !
             +-------------------------------------------------------+



            Total SCF   energy:                   -14.5667640335

            Total MP2-R12/B energy:               -14.6317815120

            Total CC2-R12/B energy:               -14.6324488403




                   +--------------------------------------------+
                   ! Calculating singlet intermediates for CCLR !
                   +--------------------------------------------+



       Time used in   RHS - TOTAL  :       0.00 seconds


            E-intermediates calculated 
            Fock-intermediate calculated 


   

 *******************************************************************
 *                                                                 *
 *<<<<<<<<<< OUTPUT FROM COUPLED CLUSTER LINEAR RESPONSE >>>>>>>>>>*
 *                                                                 *
 *<<<<<<<<<<     CALCULATION OF EXCITATION ENERGIES      >>>>>>>>>>*
 *                                                                 *
 *******************************************************************



                            +--------------------------+
                            !  CC2 Excitation Energies !
                            +--------------------------+


 --------------------------
 Symmetry class Nr.:     1
 Multiplicity      :     1
 --------------------------

 Length of Excitation vectors in this class is:        54
 Converging for  2 roots.
  >> output from FNDMN3 <<
  LOWEST VALUE AND PLACE   0.74104968952692452                2
  HIGHST VALUE AND PLACE    10.343642874779576                8
IELMNT XMIN IMIN NDEG        1    7.41050D-01       2   1
IELMNT XMIN IMIN NDEG        2    7.67461D-01      31   1
IELMNT XMIN IMIN NDEG        3    7.67461D-01      11   2
IELMNT XMIN IMIN NDEG        4    7.67461D-01      21   3
IELMNT XMIN IMIN NDEG        5    1.14996D+00      24   1
IELMNT XMIN IMIN NDEG        6    1.14996D+00      34   2
  NUMBER OF ELEMENTS OBTAINED IN FNDMN3            4
  FROM FNDMN3 : 
    PLACES OF LOWEST ELEMENTS 
     1 :      2     31     11     21
  MIN AND MAX IN SELECTED SUPSPACE   0.74104968952692452       0.76746146971047680     
 Start vector guessed from diagonal
 ... selected element no.  2
 Start vector guessed from diagonal
 ... selected element no. 31
 CCEQ_SOL: IPRLE   =               5
 CCEQ_SOL: TRIPLET =     F
 CCEQ_SOL: LINQCC  =     F
 CCEQ_SOL: NREDH   =               2
 CCEQ_SOL: MAXRED  =             200
 CCEQ_SOL: MAXLE   =             100
 CCEQ_SOL: ISIDE   =               1
 CCEQ_SOL: ISTRVE  =               1
 CCEQ_SOL: NVEC    =               2
 CCEQ_SOL: NUPVEC  =               2
 CCEQ_SOL: NCCVAR  =              54



 >>>>> COUPLED CLUSTER RESPONSE SOLVER <<<<<

    Iter  #Vectors  time (min)   residual
    --------------------------------------


 Time used in     CC_RHTR in total   :       0.00 seconds
 Time used in   CC part              :       0.00 seconds
 Time used in   Int. calc. & read    :       0.00 seconds
 Time used in   IO of vectors/I.M.   :       0.00 seconds
  


 Time used in     CC_RHTR in total   :       0.00 seconds
 Time used in   CC part              :       0.00 seconds
 Time used in   Int. calc. & read    :       0.00 seconds
 Time used in   IO of vectors/I.M.   :       0.00 seconds
  

 REDUCED EIGENVALUES real part:

               Column   1
       1       0.56226981
       2       0.76791481
    ==== End of matrix output ====
  
 ROOT:  1 RESIDUAL TOT: 1.54868D-01
 ROOT:  2 RESIDUAL TOT: 1.19978D-02

 (CCORT) new  b-vector no.  2
 is removed because of linear dependence;
 norm of vector after Gram-Schmidt's orthogonalization  1.03960D-31
  After Gram Schmidt orthonormalization
          -1  vectors with norm le:   1.0000000000000000E-035  REMOVED

 (CCORT)  trial vectors reduced from  2 to  1
      1       2         0.00     0.15E+00

 Lowest eigenvalues in this iteration: 

               Column   1
       1       0.56226981
       2       0.76791481
    ==== End of matrix output ====
 Dimension of the reduced space:     3
 >>> TIME USED IN THIS MICRO ITERATION        0.00



 Time used in     CC_RHTR in total   :       0.00 seconds
 Time used in   CC part              :       0.00 seconds
 Time used in   Int. calc. & read    :       0.00 seconds
 Time used in   IO of vectors/I.M.   :       0.00 seconds
  

 REDUCED EIGENVALUES real part:

               Column   1
       1       0.49627492
       2       0.76776221
    ==== End of matrix output ====
  
 ROOT:  1 RESIDUAL TOT: 2.46878D-02
 ROOT:  2 RESIDUAL TOT: 5.58384D-03
      2       1         0.00     0.25E-01

 Lowest eigenvalues in this iteration: 

               Column   1
       1       0.49627492
       2       0.76776221
    ==== End of matrix output ====
 Dimension of the reduced space:     5
 >>> TIME USED IN THIS MICRO ITERATION        0.00



 Time used in     CC_RHTR in total   :       0.00 seconds
 Time used in   CC part              :       0.00 seconds
 Time used in   Int. calc. & read    :       0.00 seconds
 Time used in   IO of vectors/I.M.   :       0.00 seconds
  


 Time used in     CC_RHTR in total   :       0.00 seconds
 Time used in   CC part              :       0.00 seconds
 Time used in   Int. calc. & read    :       0.00 seconds
 Time used in   IO of vectors/I.M.   :       0.00 seconds
  

 REDUCED EIGENVALUES real part:

               Column   1
       1       0.47995436
       2       0.71645744
    ==== End of matrix output ====
  
 ROOT:  1 RESIDUAL TOT: 1.41143D-02
 ROOT:  2 RESIDUAL TOT: 3.72784D-02
      3       2         0.00     0.37E-01

 Lowest eigenvalues in this iteration: 

               Column   1
       1       0.47995436
       2       0.71645744
    ==== End of matrix output ====
 Dimension of the reduced space:     7
 >>> TIME USED IN THIS MICRO ITERATION        0.00



 Time used in     CC_RHTR in total   :       0.00 seconds
 Time used in   CC part              :       0.00 seconds
 Time used in   Int. calc. & read    :       0.00 seconds
 Time used in   IO of vectors/I.M.   :       0.00 seconds
  


 Time used in     CC_RHTR in total   :       0.00 seconds
 Time used in   CC part              :       0.00 seconds
 Time used in   Int. calc. & read    :       0.00 seconds
 Time used in   IO of vectors/I.M.   :       0.00 seconds
  

 REDUCED EIGENVALUES real part:

               Column   1
       1       0.48035174
       2       0.66407224
    ==== End of matrix output ====
  
 ROOT:  1 RESIDUAL TOT: 1.65240D-03
 ROOT:  2 RESIDUAL TOT: 6.81702D-03
      4       2         0.00     0.68E-02

 Lowest eigenvalues in this iteration: 

               Column   1
       1       0.48035174
       2       0.66407224
    ==== End of matrix output ====
 Dimension of the reduced space:     9
 >>> TIME USED IN THIS MICRO ITERATION        0.00



 Time used in     CC_RHTR in total   :       0.00 seconds
 Time used in   CC part              :       0.00 seconds
 Time used in   Int. calc. & read    :       0.00 seconds
 Time used in   IO of vectors/I.M.   :       0.00 seconds
  


 Time used in     CC_RHTR in total   :       0.00 seconds
 Time used in   CC part              :       0.00 seconds
 Time used in   Int. calc. & read    :       0.00 seconds
 Time used in   IO of vectors/I.M.   :       0.00 seconds
  

 REDUCED EIGENVALUES real part:

               Column   1
       1       0.48159110
       2       0.67970793
    ==== End of matrix output ====
  
 ROOT:  1 RESIDUAL TOT: 2.73685D-04
 ROOT:  2 RESIDUAL TOT: 1.84435D-03
      5       2         0.00     0.18E-02

 Lowest eigenvalues in this iteration: 

               Column   1
       1       0.48159110
       2       0.67970793
    ==== End of matrix output ====
 Dimension of the reduced space:    11
 >>> TIME USED IN THIS MICRO ITERATION        0.00



 Time used in     CC_RHTR in total   :       0.00 seconds
 Time used in   CC part              :       0.00 seconds
 Time used in   Int. calc. & read    :       0.00 seconds
 Time used in   IO of vectors/I.M.   :       0.00 seconds
  


 Time used in     CC_RHTR in total   :       0.00 seconds
 Time used in   CC part              :       0.00 seconds
 Time used in   Int. calc. & read    :       0.00 seconds
 Time used in   IO of vectors/I.M.   :       0.00 seconds
  

 REDUCED EIGENVALUES real part:

               Column   1
       1       0.48147382
       2       0.67722956
    ==== End of matrix output ====
  
 ROOT:  1 RESIDUAL TOT: 7.69796D-05
 ROOT:  2 RESIDUAL TOT: 9.98435D-04
      6       2         0.00     0.10E-02

 Lowest eigenvalues in this iteration: 

               Column   1
       1       0.48147382
       2       0.67722956
    ==== End of matrix output ====
 Dimension of the reduced space:    13
 >>> TIME USED IN THIS MICRO ITERATION        0.00



 Time used in     CC_RHTR in total   :       0.00 seconds
 Time used in   CC part              :       0.00 seconds
 Time used in   Int. calc. & read    :       0.00 seconds
 Time used in   IO of vectors/I.M.   :       0.00 seconds
  


 Time used in     CC_RHTR in total   :       0.00 seconds
 Time used in   CC part              :       0.00 seconds
 Time used in   Int. calc. & read    :       0.00 seconds
 Time used in   IO of vectors/I.M.   :       0.00 seconds
  

 REDUCED EIGENVALUES real part:

               Column   1
       1       0.48147071
       2       0.67569148
    ==== End of matrix output ====
  
 ROOT:  1 RESIDUAL TOT: 1.92931D-05
 ROOT:  2 RESIDUAL TOT: 7.71640D-04
      7       2         0.00     0.77E-03

 Lowest eigenvalues in this iteration: 

               Column   1
       1       0.48147071
       2       0.67569148
    ==== End of matrix output ====
 Dimension of the reduced space:    15
 >>> TIME USED IN THIS MICRO ITERATION        0.00



 Time used in     CC_RHTR in total   :       0.00 seconds
 Time used in   CC part              :       0.00 seconds
 Time used in   Int. calc. & read    :       0.00 seconds
 Time used in   IO of vectors/I.M.   :       0.00 seconds
  


 Time used in     CC_RHTR in total   :       0.00 seconds
 Time used in   CC part              :       0.00 seconds
 Time used in   Int. calc. & read    :       0.00 seconds
 Time used in   IO of vectors/I.M.   :       0.00 seconds
  

 REDUCED EIGENVALUES real part:

               Column   1
       1       0.48148416
       2       0.67678766
    ==== End of matrix output ====
  
 ROOT:  1 RESIDUAL TOT: 1.04113D-06
 ROOT:  2 RESIDUAL TOT: 7.35343D-05
      8       2         0.00     0.74E-04

 Lowest eigenvalues in this iteration: 

               Column   1
       1       0.48148416
       2       0.67678766
    ==== End of matrix output ====
 Dimension of the reduced space:    17
 >>> TIME USED IN THIS MICRO ITERATION        0.00



 Time used in     CC_RHTR in total   :       0.00 seconds
 Time used in   CC part              :       0.00 seconds
 Time used in   Int. calc. & read    :       0.00 seconds
 Time used in   IO of vectors/I.M.   :       0.00 seconds
  


 Time used in     CC_RHTR in total   :       0.00 seconds
 Time used in   CC part              :       0.00 seconds
 Time used in   Int. calc. & read    :       0.00 seconds
 Time used in   IO of vectors/I.M.   :       0.00 seconds
  

 REDUCED EIGENVALUES real part:

               Column   1
       1       0.48148418
       2       0.67678709
    ==== End of matrix output ====
  
 ROOT:  1 RESIDUAL TOT: 9.25625D-08
 ROOT:  2 RESIDUAL TOT: 1.03813D-05
      9       2         0.00     0.10E-04

 Lowest eigenvalues in this iteration: 

               Column   1
       1       0.48148418
       2       0.67678709
    ==== End of matrix output ====
 Dimension of the reduced space:    19
 >>> TIME USED IN THIS MICRO ITERATION        0.00



 Time used in     CC_RHTR in total   :       0.00 seconds
 Time used in   CC part              :       0.00 seconds
 Time used in   Int. calc. & read    :       0.00 seconds
 Time used in   IO of vectors/I.M.   :       0.00 seconds
  


 Time used in     CC_RHTR in total   :       0.00 seconds
 Time used in   CC part              :       0.00 seconds
 Time used in   Int. calc. & read    :       0.00 seconds
 Time used in   IO of vectors/I.M.   :       0.00 seconds
  

 REDUCED EIGENVALUES real part:

               Column   1
       1       0.48148417
       2       0.67678442
    ==== End of matrix output ====
  
 ROOT:  1 RESIDUAL TOT: 1.44938D-09
 ROOT:  1 HAS CONVERGED. RESIDUAL TOT: 1.44938D-09
 ROOT:  2 RESIDUAL TOT: 2.40530D-07
     10       2         0.00     0.24E-06

 Lowest eigenvalues in this iteration: 

               Column   1
       1       0.48148417
       2       0.67678442
    ==== End of matrix output ====
 Dimension of the reduced space:    20
 >>> TIME USED IN THIS MICRO ITERATION        0.00



 Time used in     CC_RHTR in total   :       0.00 seconds
 Time used in   CC part              :       0.00 seconds
 Time used in   Int. calc. & read    :       0.00 seconds
 Time used in   IO of vectors/I.M.   :       0.00 seconds
  

 REDUCED EIGENVALUES real part:

               Column   1
       1       0.48148417
       2       0.67678436
    ==== End of matrix output ====
  
 ROOT:  1 RESIDUAL TOT: 2.48318D-11
 ROOT:  1 HAS CONVERGED. RESIDUAL TOT: 2.48318D-11
 ROOT:  2 RESIDUAL TOT: 5.07920D-09
 ROOT:  2 HAS CONVERGED. RESIDUAL TOT: 5.07920D-09
     11       1         0.00     0.51E-08

 Lowest eigenvalues in this iteration: 

               Column   1
       1       0.48148417
       2       0.67678436
    ==== End of matrix output ====
 Dimension of the reduced space:    20
 >>> TIME USED IN THIS MICRO ITERATION        0.00

    --------------------------------------
    converged in 11 iterations
    threshold:    0.10E-07


         Routine          Time (min)
         ---------------------------
         CC_TRDRV            0.00
         CCRED               0.00
         CCNEX               0.00
         ---------------------------
         Total time          0.00


 >>>> Total CPU  time used in CCEQ_SOLV:   0.02 seconds
 >>>> Total wall time used in CCEQ_SOLV:   0.02 seconds


 >>>>>>>>>>>>>>>>>>>>> <<<<<<<<<<<<<<<<<<<<<



  Final eigenvalues :
 =====================
 (convergence threshold:  1.00D-08)

    1   0.4814841727
    2   0.6767843609


 SYMMETRY CLASS NR.    1
 MULTIPLICITY          1


 CC2-R12/B  right excitation energies:
 ====================================
 (conversion factor used: 1 au = 27.2113957 eV)

 Excitation no.       Hartree               eV 
 --------------       -------               --
         1            0.4814841727       13.1018508154
         2            0.6767843609       18.4162392723


 Total excited state energies for states of symmetry/spin    1    1
 Excitation no.       Energy (Hartree) 
 ------------------------------------- 
@@    1    1           -14.150964667548308
@@    1    2           -13.955664479364243


 Analysis of the Coupled Cluster Excitation Vector Number :  1
 -------------------------------------------------------------

          Excitation Energy :                            13.1019 eV


          CC_PRAM:Overall Contribution of the Different Components
          --------------------------------------------------------



          Single Excitation Contribution :              96.5986 %

          Double Excitation Contribution :               3.4014 %

          ||T1||/||T2||                  :               5.3291

          Norm of Total Amplitude Vector :               0.8496


 +=============================================================================+
 | symmetry|  orbital index  |   Excitation Numbers             |   Amplitude  |
 |  Index  |   a   b   i   j |      NAI      NBJ |     NAIBJ    |              |
 +=============================================================================+
 | 1   1   |   1       2     |        2          |              |    0.835033  |
 +-----------------------------------------------------------------------------+
 | 2 2 1 1 |   2   1   2   2 |        4        3 |           12 |    0.084912  |
 | 2 2 1 1 |   2   2   2   2 |        4        4 |           13 |    0.023766  |
 | 3 3 1 1 |   2   1   2   2 |        4        3 |           22 |    0.084912  |
 | 3 3 1 1 |   2   2   2   2 |        4        4 |           23 |    0.023766  |
 | 5 5 1 1 |   2   1   2   2 |        4        3 |           32 |    0.084912  |
 | 5 5 1 1 |   2   2   2   2 |        4        4 |           33 |    0.023766  |
 +=============================================================================+


          Norm of Printed Amplitude Vector :             0.8489

          Printed all single excitations greater than 0.098285

          Printed all double excitations greater than 0.018443


 Analysis of the Coupled Cluster Excitation Vector Number :  2
 -------------------------------------------------------------

          Excitation Energy :                            18.4162 eV


          CC_PRAM:Overall Contribution of the Different Components
          --------------------------------------------------------



          Single Excitation Contribution :              92.6980 %

          Double Excitation Contribution :               7.3020 %

          ||T1||/||T2||                  :               3.5630

          Norm of Total Amplitude Vector :               0.3648


 +=============================================================================+
 | symmetry|  orbital index  |   Excitation Numbers             |   Amplitude  |
 |  Index  |   a   b   i   j |      NAI      NBJ |     NAIBJ    |              |
 +=============================================================================+
 | 1   1   |   1       2     |        2          |              |    0.351258  |
 +-----------------------------------------------------------------------------+
 | 2 2 1 1 |   2   1   2   2 |        4        3 |           12 |    0.050461  |
 | 3 3 1 1 |   2   1   2   2 |        4        3 |           22 |    0.050461  |
 | 5 5 1 1 |   2   1   2   2 |        4        3 |           32 |    0.050461  |
 +=============================================================================+


          Norm of Printed Amplitude Vector :             0.3620

          Printed all single excitations greater than 0.096280

          Printed all double excitations greater than 0.027022

 --------------------------
 Symmetry class Nr.:     1
 Multiplicity      :     3
 --------------------------

 Length of Excitation vectors in this class is:        87
 No Excitation Energies calculated in this symmetry class


 *******************************************************************************

 --------------------------
 Symmetry class Nr.:     2
 Multiplicity      :     1
 --------------------------

 Length of Excitation vectors in this class is:        20
 Converging for  1 roots.
  >> output from FNDMN3 <<
  LOWEST VALUE AND PLACE   0.38373073485523840                3
  HIGHST VALUE AND PLACE    10.318466146330032                7
IELMNT XMIN IMIN NDEG        1    3.83731D-01       3   1
IELMNT XMIN IMIN NDEG        2    7.66226D-01       4   1
IELMNT XMIN IMIN NDEG        3    1.12478D+00      10   1
IELMNT XMIN IMIN NDEG        4    1.50728D+00      12   1
IELMNT XMIN IMIN NDEG        5    4.78933D+00       1   1
  NUMBER OF ELEMENTS OBTAINED IN FNDMN3            4
  FROM FNDMN3 : 
    PLACES OF LOWEST ELEMENTS 
     1 :      3      4     10     12
  MIN AND MAX IN SELECTED SUPSPACE   0.38373073485523840        1.5072761075033929     
 Start vector guessed from diagonal
 ... selected element no.  3
 CCEQ_SOL: IPRLE   =               5
 CCEQ_SOL: TRIPLET =     F
 CCEQ_SOL: LINQCC  =     F
 CCEQ_SOL: NREDH   =               1
 CCEQ_SOL: MAXRED  =             200
 CCEQ_SOL: MAXLE   =             100
 CCEQ_SOL: ISIDE   =               1
 CCEQ_SOL: ISTRVE  =               3
 CCEQ_SOL: NVEC    =               1
 CCEQ_SOL: NUPVEC  =               1
 CCEQ_SOL: NCCVAR  =              20



 >>>>> COUPLED CLUSTER RESPONSE SOLVER <<<<<

    Iter  #Vectors  time (min)   residual
    --------------------------------------


 Time used in     CC_RHTR in total   :       0.00 seconds
 Time used in   CC part              :       0.00 seconds
 Time used in   Int. calc. & read    :       0.00 seconds
 Time used in   IO of vectors/I.M.   :       0.00 seconds
  

 REDUCED EIGENVALUES real part:

               Column   1
       1       0.23648399
    ==== End of matrix output ====
  
 ROOT:  1 RESIDUAL TOT: 9.37089D-02
      1       1         0.00     0.94E-01

 Lowest eigenvalues in this iteration: 

               Column   1
       1       0.23648399
    ==== End of matrix output ====
 Dimension of the reduced space:     2
 >>> TIME USED IN THIS MICRO ITERATION        0.00



 Time used in     CC_RHTR in total   :       0.00 seconds
 Time used in   CC part              :       0.00 seconds
 Time used in   Int. calc. & read    :       0.00 seconds
 Time used in   IO of vectors/I.M.   :       0.00 seconds
  

 REDUCED EIGENVALUES real part:

               Column   1
       1       0.22304008
    ==== End of matrix output ====
  
 ROOT:  1 RESIDUAL TOT: 1.40014D-02
      2       1         0.00     0.14E-01

 Lowest eigenvalues in this iteration: 

               Column   1
       1       0.22304008
    ==== End of matrix output ====
 Dimension of the reduced space:     3
 >>> TIME USED IN THIS MICRO ITERATION        0.00



 Time used in     CC_RHTR in total   :       0.00 seconds
 Time used in   CC part              :       0.00 seconds
 Time used in   Int. calc. & read    :       0.00 seconds
 Time used in   IO of vectors/I.M.   :       0.00 seconds
  

 REDUCED EIGENVALUES real part:

               Column   1
       1       0.22240785
    ==== End of matrix output ====
  
 ROOT:  1 RESIDUAL TOT: 6.96330D-03
      3       1         0.00     0.70E-02

 Lowest eigenvalues in this iteration: 

               Column   1
       1       0.22240785
    ==== End of matrix output ====
 Dimension of the reduced space:     4
 >>> TIME USED IN THIS MICRO ITERATION        0.00



 Time used in     CC_RHTR in total   :       0.00 seconds
 Time used in   CC part              :       0.00 seconds
 Time used in   Int. calc. & read    :       0.00 seconds
 Time used in   IO of vectors/I.M.   :       0.00 seconds
  

 REDUCED EIGENVALUES real part:

               Column   1
       1       0.22231322
    ==== End of matrix output ====
  
 ROOT:  1 RESIDUAL TOT: 6.33151D-04
      4       1         0.00     0.63E-03

 Lowest eigenvalues in this iteration: 

               Column   1
       1       0.22231322
    ==== End of matrix output ====
 Dimension of the reduced space:     5
 >>> TIME USED IN THIS MICRO ITERATION        0.00



 Time used in     CC_RHTR in total   :       0.00 seconds
 Time used in   CC part              :       0.00 seconds
 Time used in   Int. calc. & read    :       0.00 seconds
 Time used in   IO of vectors/I.M.   :       0.00 seconds
  

 REDUCED EIGENVALUES real part:

               Column   1
       1       0.22231668
    ==== End of matrix output ====
  
 ROOT:  1 RESIDUAL TOT: 1.84089D-05
      5       1         0.00     0.18E-04

 Lowest eigenvalues in this iteration: 

               Column   1
       1       0.22231668
    ==== End of matrix output ====
 Dimension of the reduced space:     6
 >>> TIME USED IN THIS MICRO ITERATION        0.00



 Time used in     CC_RHTR in total   :       0.00 seconds
 Time used in   CC part              :       0.00 seconds
 Time used in   Int. calc. & read    :       0.00 seconds
 Time used in   IO of vectors/I.M.   :       0.00 seconds
  

 REDUCED EIGENVALUES real part:

               Column   1
       1       0.22231667
    ==== End of matrix output ====
  
 ROOT:  1 RESIDUAL TOT: 1.03600D-06
      6       1         0.00     0.10E-05

 Lowest eigenvalues in this iteration: 

               Column   1
       1       0.22231667
    ==== End of matrix output ====
 Dimension of the reduced space:     7
 >>> TIME USED IN THIS MICRO ITERATION        0.00



 Time used in     CC_RHTR in total   :       0.00 seconds
 Time used in   CC part              :       0.00 seconds
 Time used in   Int. calc. & read    :       0.00 seconds
 Time used in   IO of vectors/I.M.   :       0.00 seconds
  

 REDUCED EIGENVALUES real part:

               Column   1
       1       0.22231666
    ==== End of matrix output ====
  
 ROOT:  1 RESIDUAL TOT: 5.23367D-08
      7       1         0.00     0.52E-07

 Lowest eigenvalues in this iteration: 

               Column   1
       1       0.22231666
    ==== End of matrix output ====
 Dimension of the reduced space:     8
 >>> TIME USED IN THIS MICRO ITERATION        0.00



 Time used in     CC_RHTR in total   :       0.00 seconds
 Time used in   CC part              :       0.00 seconds
 Time used in   Int. calc. & read    :       0.00 seconds
 Time used in   IO of vectors/I.M.   :       0.00 seconds
  

 REDUCED EIGENVALUES real part:

               Column   1
       1       0.22231666
    ==== End of matrix output ====
  
 ROOT:  1 RESIDUAL TOT: 1.90015D-09
 ROOT:  1 HAS CONVERGED. RESIDUAL TOT: 1.90015D-09
      8       1         0.00     0.19E-08

 Lowest eigenvalues in this iteration: 

               Column   1
       1       0.22231666
    ==== End of matrix output ====
 Dimension of the reduced space:     8
 >>> TIME USED IN THIS MICRO ITERATION        0.00

    --------------------------------------
    converged in  8 iterations
    threshold:    0.10E-07


         Routine          Time (min)
         ---------------------------
         CC_TRDRV            0.00
         CCRED               0.00
         CCNEX               0.00
         ---------------------------
         Total time          0.00


 >>>> Total CPU  time used in CCEQ_SOLV:   0.01 seconds
 >>>> Total wall time used in CCEQ_SOLV:   0.01 seconds


 >>>>>>>>>>>>>>>>>>>>> <<<<<<<<<<<<<<<<<<<<<



  Final eigenvalues :
 =====================
 (convergence threshold:  1.00D-08)

    1   0.2223166635


 SYMMETRY CLASS NR.    2
 MULTIPLICITY          1


 CC2-R12/B  right excitation energies:
 ====================================
 (conversion factor used: 1 au = 27.2113957 eV)

 Excitation no.       Hartree               eV 
 --------------       -------               --
         1            0.2223166635        6.0495441479


 Total excited state energies for states of symmetry/spin    2    1
 Excitation no.       Energy (Hartree) 
 ------------------------------------- 
@@    2    1           -14.410132176745218


 Analysis of the Coupled Cluster Excitation Vector Number :  1
 -------------------------------------------------------------

          Excitation Energy :                             6.0495 eV


          CC_PRAM:Overall Contribution of the Different Components
          --------------------------------------------------------



          Single Excitation Contribution :              99.6478 %

          Double Excitation Contribution :               0.3522 %

          ||T1||/||T2||                  :              16.8214

          Norm of Total Amplitude Vector :               0.9980


 +=============================================================================+
 | symmetry|  orbital index  |   Excitation Numbers             |   Amplitude  |
 |  Index  |   a   b   i   j |      NAI      NBJ |     NAIBJ    |              |
 +=============================================================================+
 | 2   1   |   1       2     |        3          |              |    0.993171  |
 +-----------------------------------------------------------------------------+
 | 2 1 1 1 |   2   1   1   2 |        2        2 |            6 |   -0.032468  |
 | 2 1 1 1 |   2   1   2   2 |        4        2 |            8 |    0.049418  |
 +=============================================================================+


          Norm of Printed Amplitude Vector :             0.9949

          Printed all single excitations greater than 0.099824

          Printed all double excitations greater than 0.010000


 *******************************************************************************

 --------------------------
 Symmetry class Nr.:     2
 Multiplicity      :     3
 --------------------------

 Length of Excitation vectors in this class is:        28
[...]
 Converging for  1 roots.
  >> output from FNDMN3 <<
  LOWEST VALUE AND PLACE   0.38373073485523840                3
  HIGHST VALUE AND PLACE    10.318466146330030                7
IELMNT XMIN IMIN NDEG        1    3.83731D-01       3   1
IELMNT XMIN IMIN NDEG        2    7.66226D-01       4   1
IELMNT XMIN IMIN NDEG        3    1.12478D+00      10   1
IELMNT XMIN IMIN NDEG        4    1.50728D+00      12   1
IELMNT XMIN IMIN NDEG        5    4.78933D+00       1   1
  NUMBER OF ELEMENTS OBTAINED IN FNDMN3            4
  FROM FNDMN3 : 
    PLACES OF LOWEST ELEMENTS 
     1 :      3      4     10     12
  MIN AND MAX IN SELECTED SUPSPACE   0.38373073485523840        1.5072761075033920     
 Vector nr.  4 of symmetry  3 found on file - RESTART SUCCESS
 Start vector is a CC2-R12/B RE  vector
 CCEQ_SOL: IPRLE   =               5
 CCEQ_SOL: TRIPLET =     F
 CCEQ_SOL: LINQCC  =     F
 CCEQ_SOL: NREDH   =               1
 CCEQ_SOL: MAXRED  =             200
 CCEQ_SOL: MAXLE   =             100
 CCEQ_SOL: ISIDE   =               1
 CCEQ_SOL: ISTRVE  =               4
 CCEQ_SOL: NVEC    =               1
 CCEQ_SOL: NUPVEC  =               1
 CCEQ_SOL: NCCVAR  =              20



 >>>>> COUPLED CLUSTER RESPONSE SOLVER <<<<<

    Iter  #Vectors  time (min)   residual
    --------------------------------------


 Time used in     CC_RHTR in total   :       0.00 seconds
 Time used in   CC part              :       0.00 seconds
 Time used in   Int. calc. & read    :       0.00 seconds
 Time used in   IO of vectors/I.M.   :       0.00 seconds
  

 REDUCED EIGENVALUES real part:

               Column   1
       1       0.23803325
    ==== End of matrix output ====
  
 ROOT:  1 RESIDUAL TOT: 1.57827D-02
      1       1         0.00     0.16E-01

 Lowest eigenvalues in this iteration: 

               Column   1
       1       0.23803325
    ==== End of matrix output ====
 Dimension of the reduced space:     2
 >>> TIME USED IN THIS MICRO ITERATION        0.00



 Time used in     CC_RHTR in total   :       0.00 seconds
 Time used in   CC part              :       0.00 seconds
 Time used in   Int. calc. & read    :       0.00 seconds
 Time used in   IO of vectors/I.M.   :       0.00 seconds
  

 REDUCED EIGENVALUES real part:

               Column   1
       1       0.23769246
    ==== End of matrix output ====
  
 ROOT:  1 RESIDUAL TOT: 4.41999D-03
      2       1         0.00     0.44E-02

 Lowest eigenvalues in this iteration: 

               Column   1
       1       0.23769246
    ==== End of matrix output ====
 Dimension of the reduced space:     3
 >>> TIME USED IN THIS MICRO ITERATION        0.00



 Time used in     CC_RHTR in total   :       0.00 seconds
 Time used in   CC part              :       0.00 seconds
 Time used in   Int. calc. & read    :       0.00 seconds
 Time used in   IO of vectors/I.M.   :       0.00 seconds
  

 REDUCED EIGENVALUES real part:

               Column   1
       1       0.23769987
    ==== End of matrix output ====
  
 ROOT:  1 RESIDUAL TOT: 2.05994D-03
      3       1         0.00     0.21E-02

 Lowest eigenvalues in this iteration: 

               Column   1
       1       0.23769987
    ==== End of matrix output ====
 Dimension of the reduced space:     4
 >>> TIME USED IN THIS MICRO ITERATION        0.00



 Time used in     CC_RHTR in total   :       0.00 seconds
 Time used in   CC part              :       0.00 seconds
 Time used in   Int. calc. & read    :       0.00 seconds
 Time used in   IO of vectors/I.M.   :       0.00 seconds
  

 REDUCED EIGENVALUES real part:

               Column   1
       1       0.23771056
    ==== End of matrix output ====
  
 ROOT:  1 RESIDUAL TOT: 5.13309D-04
      4       1         0.00     0.51E-03

 Lowest eigenvalues in this iteration: 

               Column   1
       1       0.23771056
    ==== End of matrix output ====
 Dimension of the reduced space:     5
 >>> TIME USED IN THIS MICRO ITERATION        0.00



 Time used in     CC_RHTR in total   :       0.00 seconds
 Time used in   CC part              :       0.00 seconds
 Time used in   Int. calc. & read    :       0.00 seconds
 Time used in   IO of vectors/I.M.   :       0.00 seconds
  

 REDUCED EIGENVALUES real part:

               Column   1
       1       0.23770902
    ==== End of matrix output ====
  
 ROOT:  1 RESIDUAL TOT: 1.75457D-04
      5       1         0.00     0.18E-03

 Lowest eigenvalues in this iteration: 

               Column   1
       1       0.23770902
    ==== End of matrix output ====
 Dimension of the reduced space:     6
 >>> TIME USED IN THIS MICRO ITERATION        0.00



 Time used in     CC_RHTR in total   :       0.00 seconds
 Time used in   CC part              :       0.00 seconds
 Time used in   Int. calc. & read    :       0.00 seconds
 Time used in   IO of vectors/I.M.   :       0.00 seconds
  

 REDUCED EIGENVALUES real part:

               Column   1
       1       0.23770840
    ==== End of matrix output ====
  
 ROOT:  1 RESIDUAL TOT: 2.74667D-05
      6       1         0.00     0.27E-04

 Lowest eigenvalues in this iteration: 

               Column   1
       1       0.23770840
    ==== End of matrix output ====
 Dimension of the reduced space:     7
 >>> TIME USED IN THIS MICRO ITERATION        0.00



 Time used in     CC_RHTR in total   :       0.00 seconds
 Time used in   CC part              :       0.00 seconds
 Time used in   Int. calc. & read    :       0.00 seconds
 Time used in   IO of vectors/I.M.   :       0.00 seconds
  

 REDUCED EIGENVALUES real part:

               Column   1
       1       0.23770840
    ==== End of matrix output ====
  
 ROOT:  1 RESIDUAL TOT: 2.37977D-06
      7       1         0.00     0.24E-05

 Lowest eigenvalues in this iteration: 

               Column   1
       1       0.23770840
    ==== End of matrix output ====
 Dimension of the reduced space:     8
 >>> TIME USED IN THIS MICRO ITERATION        0.00



 Time used in     CC_RHTR in total   :       0.00 seconds
 Time used in   CC part              :       0.00 seconds
 Time used in   Int. calc. & read    :       0.00 seconds
 Time used in   IO of vectors/I.M.   :       0.00 seconds
  

 REDUCED EIGENVALUES real part:

               Column   1
       1       0.23770840
    ==== End of matrix output ====
  
 ROOT:  1 RESIDUAL TOT: 1.62582D-07
      8       1         0.00     0.16E-06

 Lowest eigenvalues in this iteration: 

               Column   1
       1       0.23770840
    ==== End of matrix output ====
 Dimension of the reduced space:     9
 >>> TIME USED IN THIS MICRO ITERATION        0.00



 Time used in     CC_RHTR in total   :       0.00 seconds
 Time used in   CC part              :       0.00 seconds
 Time used in   Int. calc. & read    :       0.00 seconds
 Time used in   IO of vectors/I.M.   :       0.00 seconds
  

 REDUCED EIGENVALUES real part:

               Column   1
       1       0.23770840
    ==== End of matrix output ====
  
 ROOT:  1 RESIDUAL TOT: 6.73652D-09
 ROOT:  1 HAS CONVERGED. RESIDUAL TOT: 6.73652D-09
      9       1         0.00     0.67E-08

 Lowest eigenvalues in this iteration: 

               Column   1
       1       0.23770840
    ==== End of matrix output ====
 Dimension of the reduced space:     9
 >>> TIME USED IN THIS MICRO ITERATION        0.00

    --------------------------------------
    converged in  9 iterations
    threshold:    0.10E-07


         Routine          Time (min)
         ---------------------------
         CC_TRDRV            0.00
         CCRED               0.00
         CCNEX               0.00
         ---------------------------
         Total time          0.00


 >>>> Total CPU  time used in CCEQ_SOLV:   0.02 seconds
 >>>> Total wall time used in CCEQ_SOLV:   0.06 seconds


 >>>>>>>>>>>>>>>>>>>>> <<<<<<<<<<<<<<<<<<<<<



  Final eigenvalues :
 =====================
 (convergence threshold:  1.00D-08)

    1   0.2377084036


 SYMMETRY CLASS NR.    3
 MULTIPLICITY          1


 CCSD(R12)/ right excitation energies:
 ====================================
 (conversion factor used: 1 au = 27.2113957 eV)

 Excitation no.       Hartree               eV 
 --------------       -------               --
         1            0.2377084036        6.4683747016


 Total excited state energies for states of symmetry/spin    3    1
 Excitation no.       Energy (Hartree) 
 ------------------------------------- 
@@    3    1           -14.411036660687209


 Analysis of the Coupled Cluster Excitation Vector Number :  1
 -------------------------------------------------------------

          Excitation Energy :                             6.4684 eV


          CC_PRAM:Overall Contribution of the Different Components
          --------------------------------------------------------



          Single Excitation Contribution :              99.4240 %

          Double Excitation Contribution :               0.5760 %

          ||T1||/||T2||                  :              13.1379

          Norm of Total Amplitude Vector :               0.9982


 +=============================================================================+
 | symmetry|  orbital index  |   Excitation Numbers             |   Amplitude  |
 |  Index  |   a   b   i   j |      NAI      NBJ |     NAIBJ    |              |
 +=============================================================================+
 | 3   1   |   1       2     |        3          |              |    0.992108  |
 +-----------------------------------------------------------------------------+
 | 3 1 1 1 |   2   1   1   2 |        2        2 |            6 |   -0.030389  |
 | 3 1 1 1 |   2   1   2   2 |        4        2 |            8 |    0.069322  |
 +=============================================================================+


          Norm of Printed Amplitude Vector :             0.9950

          Printed all single excitations greater than 0.099712

          Printed all double excitations greater than 0.010000


 *******************************************************************************

 --------------------------
 Symmetry class Nr.:     3
 Multiplicity      :     3
 --------------------------

 Length of Excitation vectors in this class is:        28
 No Excitation Energies calculated in this symmetry class


 *******************************************************************************

 --------------------------
 Symmetry class Nr.:     4
 Multiplicity      :     1
 --------------------------

 Length of Excitation vectors in this class is:        20
 No Excitation Energies calculated in this symmetry class


 *******************************************************************************

 --------------------------
 Symmetry class Nr.:     4
 Multiplicity      :     3
 --------------------------

 Length of Excitation vectors in this class is:        36
 No Excitation Energies calculated in this symmetry class


 *******************************************************************************

 --------------------------
 Symmetry class Nr.:     5
 Multiplicity      :     1
 --------------------------

 Length of Excitation vectors in this class is:        20
 No Excitation Energies calculated in this symmetry class


 *******************************************************************************

 --------------------------
 Symmetry class Nr.:     5
 Multiplicity      :     3
 --------------------------

 Length of Excitation vectors in this class is:        28
 No Excitation Energies calculated in this symmetry class


 *******************************************************************************

 --------------------------
 Symmetry class Nr.:     6
 Multiplicity      :     1
 --------------------------

 Length of Excitation vectors in this class is:        20
 No Excitation Energies calculated in this symmetry class


 *******************************************************************************

 --------------------------
 Symmetry class Nr.:     6
 Multiplicity      :     3
 --------------------------

 Length of Excitation vectors in this class is:        36
 No Excitation Energies calculated in this symmetry class


 *******************************************************************************

 --------------------------
 Symmetry class Nr.:     7
 Multiplicity      :     1
 --------------------------

 Length of Excitation vectors in this class is:        20
 No Excitation Energies calculated in this symmetry class


 *******************************************************************************

 --------------------------
 Symmetry class Nr.:     7
 Multiplicity      :     3
 --------------------------

 Length of Excitation vectors in this class is:        36
 No Excitation Energies calculated in this symmetry class


 *******************************************************************************

 --------------------------
 Symmetry class Nr.:     8
 Multiplicity      :     1
 --------------------------

 Length of Excitation vectors in this class is:         0
 No Excitation Energies calculated in this symmetry class


 *******************************************************************************

 --------------------------
 Symmetry class Nr.:     8
 Multiplicity      :     3
 --------------------------

 Length of Excitation vectors in this class is:         0
 No Excitation Energies calculated in this symmetry class

 *******************************************************************

 Ground state energy is target 

 Ecorr =                    -14.64874506433372403080

 *******************************************************************
  

 *******************************************************************************
 *******************************************************************************
 *                                                                             *
 *                                                                             *
 *                   SUMMARY OF COUPLED CLUSTER CALCULATION                    *
 *                                                                             *
 *                                                                             *
 *******************************************************************************
 *******************************************************************************

                                                                                
                                                                                
            Total SCF   energy:                   -14.5667640335                
            Total MP2-R12/B energy:               -14.6317815120                
            Total CC2-R12/B energy:               -14.6324488403                
                                                                                
                                                                                
 +=============================================================================+
 |  sym. | Exci.  |        CC2-R12/B  Excitation energies            | ||T1||  |
 |(spin, |        +------------------------------------------------------------+
 | spat) |        |     Hartree    |       eV.      |     cm-1       |    %    |
 +=============================================================================+
 | ^1Ag  |    1   |     0.4814842  |      13.10185  |    105673.560  |  96.60  |
 | ^1Ag  |    2   |     0.6767844  |      18.41624  |    148536.997  |  92.70  |
 +-----------------------------------------------------------------------------+
 | ^1B3u |    1   |     0.2223167  |       6.04954  |     48792.867  |  99.65  |
 +-----------------------------------------------------------------------------+
 | ^1B2u |    1   |     0.2223167  |       6.04954  |     48792.867  |  99.65  |
 +=============================================================================+
                                                                                
                                                                                
     Total energies in Hartree:                                                 
             1 ^1Ag       -14.1509646675                                        
             2 ^1Ag       -13.9556644794                                        
             1 ^1B3u      -14.4101321767                                        
             1 ^1B2u      -14.4101321767                                        
                                                                                
                                                                                
            Total SCF   energy:                   -14.5667640335                
            Total RSTAR(R12)/B energy:            -14.6324488403                
            Total CCSD(R12)/B energy:             -14.6487450643                
                                                                                
                                                                                
 +=============================================================================+
 |  sym. | Exci.  |        CCSD(R12)/ Excitation energies            | ||T1||  |
 |(spin, |        +------------------------------------------------------------+
 | spat) |        |     Hartree    |       eV.      |     cm-1       |    %    |
 +=============================================================================+
 | ^1Ag  |    1   |     0.3811826  |      10.37251  |     83659.904  |   0.15  |
 | ^1Ag  |    2   |     0.4784056  |      13.01808  |    104997.903  |  86.12  |
 +-----------------------------------------------------------------------------+
 | ^1B3u |    1   |     0.2377084  |       6.46837  |     52170.964  |  99.42  |
 +-----------------------------------------------------------------------------+
 | ^1B2u |    1   |     0.2377084  |       6.46837  |     52170.964  |  99.42  |
 +=============================================================================+
                                                                                
                                                                                
     Total energies in Hartree:                                                 
             1 ^1Ag       -14.2675624921                                        
             2 ^1Ag       -14.1703394152                                        
             1 ^1B3u      -14.4110366607                                        
             1 ^1B2u      -14.4110366607                                        

  1 a.u. =        27.21138 eV.  
  1 a.u. =    219474.62934 cm-1.
  

 *******************************************************************************
 *******************************************************************************
 *                                                                             *
 *                                                                             *
 *                      END OF COUPLED CLUSTER CALCULATION                     *
 *                                                                             *
 *                                                                             *
 *******************************************************************************
 *******************************************************************************


 >>>> CPU and wall time for CC :       1.057       1.305

 
     Date and time (Linux)  : Sun Sep  8 21:10:40 2013
     Host name              : lpqlx131.ups-tlse.fr                    


                      .-------------------------------------.
                      | End of Coupled Cluster Section (CC) |
                      `-------------------------------------'

 >>>> Total CPU  time used in DALTON:   1.11 seconds
 >>>> Total wall time used in DALTON:   1.36 seconds

 
     Date and time (Linux)  : Sun Sep  8 21:10:40 2013
     Host name              : lpqlx131.ups-tlse.fr                    
