

     ************************************************************************
     *************** Dalton - An Electronic Structure Program ***************
     ************************************************************************

    This is output from DALTON 2015.0
   ----------------------------------------------------------------------------
    NOTE:
     
    Dalton is an experimental code for the evaluation of molecular
    properties using (MC)SCF, DFT, CI, and CC wave functions.
    The authors accept no responsibility for the performance of
    the code or for the correctness of the results.
     
    The code (in whole or part) is provided under a licence and
    is not to be reproduced for further distribution without
    the written permission of the authors or their representatives.
     
    See the home page "http://daltonprogram.org" for further information.
     
    If results obtained with this code are published,
    the appropriate citations would be both of:
     
       K. Aidas, C. Angeli, K. L. Bak, V. Bakken, R. Bast,
       L. Boman, O. Christiansen, R. Cimiraglia, S. Coriani,
       J. Cukras, P. Dahle, E. K. Dalskov, U. Ekstroem,
       T. Enevoldsen, J. J. Eriksen, P. Ettenhuber, B. Fernandez,
       L. Ferrighi, H. Fliegl, L. Frediani, K. Hald, A. Halkier,
       C. Haettig, H. Heiberg, T. Helgaker, A. C. Hennum,
       H. Hettema, E. Hjertenaes, S. Hoest, I.-M. Hoeyvik,
       M. F. Iozzi, B. Jansik, H. J. Aa. Jensen, D. Jonsson,
       P. Joergensen, M. Kaminski, J. Kauczor, S. Kirpekar,
       T. Kjaergaard, W. Klopper, S. Knecht, R. Kobayashi, H. Koch,
       J. Kongsted, A. Krapp, K. Kristensen, A. Ligabue,
       O. B. Lutnaes, J. I. Melo, K. V. Mikkelsen, R. H. Myhre,
       C. Neiss, C. B. Nielsen, P. Norman, J. Olsen,
       J. M. H. Olsen, A. Osted, M. J. Packer, F. Pawlowski,
       T. B. Pedersen, P. F. Provasi, S. Reine, Z. Rinkevicius,
       T. A. Ruden, K. Ruud, V. Rybkin, P. Salek, C. C. M. Samson,
       A. Sanchez de Meras, T. Saue, S. P. A. Sauer,
       B. Schimmelpfennig, K. Sneskov, A. H. Steindal,
       K. O. Sylvester-Hvid, P. R. Taylor, A. M. Teale,
       E. I. Tellgren, D. P. Tew, A. J. Thorvaldsen, L. Thoegersen,
       O. Vahtras, M. A. Watson, D. J. D. Wilson, M. Ziolkowski
       and H. Agren,
       "The Dalton quantum chemistry program system",
       WIREs Comput. Mol. Sci. 2013. (doi: 10.1002/wcms.1172)
    
    and
    
       Dalton, a Molecular Electronic Structure Program,
       Release Dalton2015.0 (2015), see http://daltonprogram.org
   ----------------------------------------------------------------------------

    Authors in alphabetical order (major contribution(s) in parenthesis):

  Kestutis Aidas,           Vilnius University,           Lithuania   (QM/MM)
  Celestino Angeli,         University of Ferrara,        Italy       (NEVPT2)
  Keld L. Bak,              UNI-C,                        Denmark     (AOSOPPA, non-adiabatic coupling, magnetic properties)
  Vebjoern Bakken,          University of Oslo,           Norway      (DALTON; geometry optimizer, symmetry detection)
  Radovan Bast,             KTH Stockholm,                Sweden      (DALTON installation and execution frameworks)
  Pablo Baudin,             University of Valencia,       Spain       (Cholesky excitation energies)
  Linus Boman,              NTNU,                         Norway      (Cholesky decomposition and subsystems)
  Ove Christiansen,         Aarhus University,            Denmark     (CC module)
  Renzo Cimiraglia,         University of Ferrara,        Italy       (NEVPT2)
  Sonia Coriani,            University of Trieste,        Italy       (CC module, MCD in RESPONS)
  Janusz Cukras,            University of Trieste,        Italy       (MChD in RESPONS)
  Paal Dahle,               University of Oslo,           Norway      (Parallelization)
  Erik K. Dalskov,          UNI-C,                        Denmark     (SOPPA)
  Thomas Enevoldsen,        Univ. of Southern Denmark,    Denmark     (SOPPA)
  Janus J. Eriksen,         Aarhus University,            Denmark     (Polarizable embedding model, TDA)
  Berta Fernandez,          U. of Santiago de Compostela, Spain       (doublet spin, ESR in RESPONS)
  Lara Ferrighi,            Aarhus University,            Denmark     (PCM Cubic response)
  Heike Fliegl,             University of Oslo,           Norway      (CCSD(R12))
  Luca Frediani,            UiT The Arctic U. of Norway,  Norway      (PCM)
  Bin Gao,                  UiT The Arctic U. of Norway,  Norway      (Gen1Int library)
  Christof Haettig,         Ruhr-University Bochum,       Germany     (CC module)
  Kasper Hald,              Aarhus University,            Denmark     (CC module)
  Asger Halkier,            Aarhus University,            Denmark     (CC module)
  Erik D. Hedegaard,        Univ. of Southern Denmark,    Denmark     (Polarizable embedding model, QM/MM)
  Hanne Heiberg,            University of Oslo,           Norway      (geometry analysis, selected one-electron integrals)
  Trygve Helgaker,          University of Oslo,           Norway      (DALTON; ABACUS, ERI, DFT modules, London, and much more)
  Alf Christian Hennum,     University of Oslo,           Norway      (Parity violation)
  Hinne Hettema,            University of Auckland,       New Zealand (quadratic response in RESPONS; SIRIUS supersymmetry)
  Eirik Hjertenaes,         NTNU,                         Norway      (Cholesky decomposition)
  Maria Francesca Iozzi,    University of Oslo,           Norway      (RPA)
  Brano Jansik              Technical Univ. of Ostrava    Czech Rep.  (DFT cubic response)
  Hans Joergen Aa. Jensen,  Univ. of Southern Denmark,    Denmark     (DALTON; SIRIUS, RESPONS, ABACUS modules, London, and much more)
  Dan Jonsson,              UiT The Arctic U. of Norway,  Norway      (cubic response in RESPONS module)
  Poul Joergensen,          Aarhus University,            Denmark     (RESPONS, ABACUS, and CC modules)
  Maciej Kaminski,          University of Warsaw,         Poland      (CPPh in RESPONS)
  Joanna Kauczor,           Linkoeping University,        Sweden      (Complex polarization propagator (CPP) module)
  Sheela Kirpekar,          Univ. of Southern Denmark,    Denmark     (Mass-velocity & Darwin integrals)
  Wim Klopper,              KIT Karlsruhe,                Germany     (R12 code in CC, SIRIUS, and ABACUS modules)
  Stefan Knecht,            ETH Zurich,                   Switzerland (Parallel CI and MCSCF)
  Rika Kobayashi,           Australian National Univ.,    Australia   (DIIS in CC, London in MCSCF)
  Henrik Koch,              NTNU,                         Norway      (CC module, Cholesky decomposition)
  Jacob Kongsted,           Univ. of Southern Denmark,    Denmark     (Polarizable embedding model, QM/MM)
  Andrea Ligabue,           University of Modena,         Italy       (CTOCD, AOSOPPA)
  Nanna H. List             Univ. of Southern Denmark,    Denmark     (Polarizable embedding model)
  Ola B. Lutnaes,           University of Oslo,           Norway      (DFT Hessian)
  Juan I. Melo,             University of Buenos Aires,   Argentina   (LRESC, Relativistic Effects on NMR Shieldings)
  Kurt V. Mikkelsen,        University of Copenhagen,     Denmark     (MC-SCRF and QM/MM)
  Rolf H. Myhre,            NTNU,                         Norway      (Cholesky, subsystems and ECC2)
  Christian Neiss,          Univ. Erlangen-Nuernberg,     Germany     (CCSD(R12))
  Christian B. Nielsen,     University of Copenhagen,     Denmark     (QM/MM)
  Patrick Norman,           Linkoeping University,        Sweden      (Cubic response and complex response in RESPONS)
  Jeppe Olsen,              Aarhus University,            Denmark     (SIRIUS CI/density modules)
  Jogvan Magnus H. Olsen,   Univ. of Southern Denmark,    Denmark     (Polarizable embedding model, QM/MM)
  Anders Osted,             Copenhagen University,        Denmark     (QM/MM)
  Martin J. Packer,         University of Sheffield,      UK          (SOPPA)
  Filip Pawlowski,          Kazimierz Wielki University,  Poland      (CC3)
  Morten N. Pedersen,       Univ. of Southern Denmark,    Denmark     (Polarizable embedding model)
  Thomas B. Pedersen,       University of Oslo,           Norway      (Cholesky decomposition)
  Patricio F. Provasi,      University of Northeastern,   Argentina   (Analysis of coupling constants in localized orbitals)
  Zilvinas Rinkevicius,     KTH Stockholm,                Sweden      (open-shell DFT, ESR)
  Elias Rudberg,            KTH Stockholm,                Sweden      (DFT grid and basis info)
  Torgeir A. Ruden,         University of Oslo,           Norway      (Numerical derivatives in ABACUS)
  Kenneth Ruud,             UiT The Arctic U. of Norway,  Norway      (DALTON; ABACUS magnetic properties and much more)
  Pawel Salek,              KTH Stockholm,                Sweden      (DALTON; DFT code)
  Claire C. M. Samson       University of Karlsruhe       Germany     (Boys localization, r12 integrals in ERI)
  Alfredo Sanchez de Meras, University of Valencia,       Spain       (CC module, Cholesky decomposition)
  Trond Saue,               Paul Sabatier University,     France      (direct Fock matrix construction)
  Stephan P. A. Sauer,      University of Copenhagen,     Denmark     (SOPPA(CCSD), SOPPA prop., AOSOPPA, vibrational g-factors)
  Bernd Schimmelpfennig,    Forschungszentrum Karlsruhe,  Germany     (AMFI module)
  Kristian Sneskov,         Aarhus University,            Denmark     (Polarizable embedding model, QM/MM)
  Arnfinn H. Steindal,      UiT The Arctic U. of Norway,  Norway      (parallel QM/MM, Polarizable embedding model)
  Casper Steinmann,         Univ. of Southern Denmark,    Denmark     (QFIT, Polarizable embedding model)
  K. O. Sylvester-Hvid,     University of Copenhagen,     Denmark     (MC-SCRF)
  Peter R. Taylor,          VLSCI/Univ. of Melbourne,     Australia   (Symmetry handling ABACUS, integral transformation)
  Andrew M. Teale,          University of Nottingham,     England     (DFT-AC, DFT-D)
  David P. Tew,             University of Bristol,        England     (CCSD(R12))
  Olav Vahtras,             KTH Stockholm,                Sweden      (triplet response, spin-orbit, ESR, TDDFT, open-shell DFT)
  David J. Wilson,          La Trobe University,          Australia   (DFT Hessian and DFT magnetizabilities)
  Hans Agren,               KTH Stockholm,                Sweden      (SIRIUS module, RESPONS, MC-SCRF solvation model)
 --------------------------------------------------------------------------------

     Date and time (Linux)  : Mon Mar  9 09:45:55 2015
     Host name              : foeroyar                                

 * Work memory size             :    64000000 =  488.28 megabytes.

 * Directories for basis set searches:
   1) /home/magnus/Projects/dalton_devel/dalton/DALTON/test/cc3r12_n2_sym_exc
   2) /home/magnus/Projects/dalton_devel/dalton/build_dalton2015/basis


Compilation information
-----------------------

 Who compiled             | magnus
 Host                     | foeroyar
 System                   | Linux-3.18.7-200.fc21.x86_64
 CMake generator          | Unix Makefiles
 Processor                | x86_64
 64-bit integers          | OFF
 MPI                      | OFF
 Fortran compiler         | /usr/bin/gfortran
 Fortran compiler version | GNU Fortran (GCC) 4.9.2 20150212 (Red Hat 4.9.2-6)
 C compiler               | /usr/bin/gcc
 C compiler version       | gcc (GCC) 4.9.2 20150212 (Red Hat 4.9.2-6)
 C++ compiler             | /usr/bin/g++
 C++ compiler version     | g++ (GCC) 4.9.2 20150212 (Red Hat 4.9.2-6)
 BLAS                     | /lib64/libblas.so
 LAPACK                   | /lib64/liblapack.so
 Static linking           | OFF
 Last Git revision        | b3d704b44c0c0e848eb4e9dadcbce570745b14b9
 Configuration time       | 2015-03-03 07:58:23.583371


   Content of the .dal input file
 ----------------------------------

**DALTON INPUT                                    
.RUN WAVE FUNCTION                                
*MOLBAS                                           
.R12AUX                                           
**INTEGRALS                                       
.R12                                              
**WAVE FUNCTIONS                                  
.CC                                               
!*SCF INPUT                                       
!.THRESHOLD                                       
! 1D-10                                           
*ORBITALS                                         
.MOSTART                                          
 H1DIAG                                           
.R12ORB                                           
 0 0 0 0 0 1 1 0                                  
*CC INPUT                                         
.CC3                                              
.PRINT                                            
 3                                                
.FREEZE                                           
 2 0                                              
!.THRENR                                          
! 1.0D-12                                         
.MAX IT                                           
 100                                              
*CCEXCI                                           
!.THREXC                                          
! 1.0D-10                                         
.NCCEXC                                           
 2 2 2 2 2 2 2 2                                  
*R12 INP                                          
.NO HYB                                           
.CC2                                              
 1B                                               
**END OF DALTON INPUT                             


   Content of the .mol file
 ----------------------------

BASIS                                                                          
cc-pVDZ aug-cc-pVTZ                                                            
N2                                                                             
                                                                               
    2  0 3  X  Y  Z  0.10D-14                                                  
 1      7.    1                                                                
N        0.0000000000000     0.0000000000000     1.0371572000000       *       
 2      7.    1                                                                
N        0.0000000000000     0.0000000000000     1.0371572000000       *       


       *******************************************************************
       *********** Output from DALTON general input processing ***********
       *******************************************************************

 --------------------------------------------------------------------------------
   Overall default print level:    0
   Print level for DALTON.STAT:    1

    HERMIT 1- and 2-electron integral sections will be executed
    "Old" integral transformation used (limited to max 255 basis functions)
    Wave function sections will be executed (SIRIUS module)
 --------------------------------------------------------------------------------


 Changes of defaults for *MOLBAS:
 --------------------------------

 Print level in molecule setup (READIN):    1

 .R12AUX: Reading auxiliary basis sets from .mol file for R12



   ****************************************************************************
   *************** Output of molecule and basis set information ***************
   ****************************************************************************


    The two title cards from your ".mol" input:
    ------------------------------------------------------------------------
 1: N2                                                                      
 2:                                                                         
    ------------------------------------------------------------------------



@ WARNING - deprecated old .mol fixed format input has been detected:
    2  0 3  X  Y  Z  0.10D-14                                                   
@ WARNING - this input format may not be supported in future releases.




  Atomic type no.    1
  --------------------
  Nuclear charge:   7.00000
  Number of symmetry independent centers:    1
  Number of basis sets to read;    1
  Basis set file used for this atomic type with Z =   7 :
     "/home/magnus/Projects/dalton_devel/dalton/build_dalton2015/basis/cc-pVDZ"

  Atomic type no.    2
  --------------------
  Nuclear charge:   7.00000
  Number of symmetry independent centers:    1
  This is an auxiliary basis for R12, MBSI:    2
  Basis set file used for this atomic type with Z =   7 :
     "/home/magnus/Projects/dalton_devel/dalton/build_dalton2015/basis/aug-cc-pVTZ"


                         SYMGRP: Point group information
                         -------------------------------

@    Point group: D2h

@  * The irrep name for each symmetry:    1: Ag     2: B3u    3: B2u    4: B1g    5: B1u    6: B2g    7: B3g    8: Au 


   * The point group was generated by:

      Reflection in the yz-plane
      Reflection in the xz-plane
      Reflection in the xy-plane

   * Group multiplication table

        |  E   C2z  C2y  C2x   i   Oxy  Oxz  Oyz
   -----+----------------------------------------
     E  |  E   C2z  C2y  C2x   i   Oxy  Oxz  Oyz
    C2z | C2z   E   C2x  C2y  Oxy   i   Oyz  Oxz
    C2y | C2y  C2x   E   C2z  Oxz  Oyz   i   Oxy
    C2x | C2x  C2y  C2z   E   Oyz  Oxz  Oxy   i 
     i  |  i   Oxy  Oxz  Oyz   E   C2z  C2y  C2x
    Oxy | Oxy   i   Oyz  Oxz  C2z   E   C2x  C2y
    Oxz | Oxz  Oyz   i   Oxy  C2y  C2x   E   C2z
    Oyz | Oyz  Oxz  Oxy   i   C2x  C2y  C2z   E 

   * Character table

        |  E   C2z  C2y  C2x   i   Oxy  Oxz  Oyz
   -----+----------------------------------------
    Ag  |   1    1    1    1    1    1    1    1
    B3u |   1   -1   -1    1   -1    1    1   -1
    B2u |   1   -1    1   -1   -1    1   -1    1
    B1g |   1    1   -1   -1    1    1   -1   -1
    B1u |   1    1   -1   -1   -1   -1    1    1
    B2g |   1   -1    1   -1    1   -1    1   -1
    B3g |   1   -1   -1    1    1   -1   -1    1
    Au  |   1    1    1    1   -1   -1   -1   -1

   * Direct product table

        | Ag   B3u  B2u  B1g  B1u  B2g  B3g  Au 
   -----+----------------------------------------
    Ag  | Ag   B3u  B2u  B1g  B1u  B2g  B3g  Au 
    B3u | B3u  Ag   B1g  B2u  B2g  B1u  Au   B3g
    B2u | B2u  B1g  Ag   B3u  B3g  Au   B1u  B2g
    B1g | B1g  B2u  B3u  Ag   Au   B3g  B2g  B1u
    B1u | B1u  B2g  B3g  Au   Ag   B3u  B2u  B1g
    B2g | B2g  B1u  Au   B3g  B3u  Ag   B1g  B2u
    B3g | B3g  Au   B1u  B2g  B2u  B1g  Ag   B3u
    Au  | Au   B3g  B2g  B1u  B1g  B2u  B3u  Ag 


                                 Isotopic Masses
                                 ---------------

                           N   _1     14.003074
                           N   _2     14.003074
                           N   _1      0.000000
                           N   _2      0.000000

                       Total mass:    28.006148 amu
                       Natural abundance:   0.000 %

 Center-of-mass coordinates (a.u.):    0.000000    0.000000    0.000000


  Atoms and basis sets
  --------------------

  Number of atom types :    2
  Total number of atoms:    4

  Basis set 1 refers to the basis "cc-pVDZ" from the basis set library.

  Basis set 2 refers to the basis "aug-cc-pVTZ" from the basis set library.

  label  basis   atoms  charge   prim  cont     basis
  ------------------------------------------------------------------------------
  N        1       2    7.0000    26    14      [9s4p1d|3s2p1d]                                    
  N        2       2    0.0000    58    46      [11s6p3d2f|5s4p3d2f]                               
  ------------------------------------------------------------------------------
  total:           4   14.0000   168   120
  ------------------------------------------------------------------------------
  Spherical harmonic basis used.

  Threshold for neglecting AO integrals:  1.00D-15


  Cartesian Coordinates (a.u.)
  ----------------------------

  Total number of coordinates:   12
  N   / 1 :     1  x   0.0000000000    2  y   0.0000000000    3  z   1.0371572000
  N   / 2 :     4  x   0.0000000000    5  y   0.0000000000    6  z  -1.0371572000
  N   / 1 :     7  x   0.0000000000    8  y   0.0000000000    9  z   1.0371572000
  N   / 2 :    10  x   0.0000000000   11  y   0.0000000000   12  z  -1.0371572000


  Symmetry Coordinates
  --------------------

  Number of coordinates in each symmetry:     2    2    2    0    2    2    2    0

  Symmetry  Ag  ( 1)

    1   N     z    [  3  -    6 ]/2
    2   N     z    [  9  -   12 ]/2

  Symmetry  B3u ( 2)

    3   N     x    [  1  +    4 ]/2
    4   N     x    [  7  +   10 ]/2

  Symmetry  B2u ( 3)

    5   N     y    [  2  +    5 ]/2
    6   N     y    [  8  +   11 ]/2

  Symmetry  B1u ( 5)

    7   N     z    [  3  +    6 ]/2
    8   N     z    [  9  +   12 ]/2

  Symmetry  B2g ( 6)

    9   N     x    [  1  -    4 ]/2
   10   N     x    [  7  -   10 ]/2

  Symmetry  B3g ( 7)

   11   N     y    [  2  -    5 ]/2
   12   N     y    [  8  -   11 ]/2


   Interatomic separations (in Angstrom):
   --------------------------------------

            N   _1      N   _2      N   _1      N   _2
            ------      ------      ------      ------
 N   _1:    0.000000
 N   _2:    1.097680    0.000000
 N   _1:    0.000000    1.097680    0.000000
 N   _2:    1.097680    0.000000    1.097680    0.000000


  Max    interatomic separation is    1.0977 Angstrom (    2.0743 Bohr)
  between atoms    2 and    1, "N   _2" and "N   _1".

  Min YX interatomic separation is    0.0000 Angstrom (    0.0000 Bohr)

@ WARNING: Number of short HX and YX bond lengths:    0    2
@ WARNING: If not intentional, maybe your coordinates were in Angstrom,
@ WARNING: but "Angstrom" was not specified in .mol file


  Bond distances (Angstrom):
  --------------------------

                  atom 1     atom 2       distance
                  ------     ------       --------
  bond distance:  N   _2     N   _1       1.097680


  Bond angles (degrees):
  ----------------------

                  atom 1     atom 2     atom 3         angle
                  ------     ------     ------         -----
     No angles found




 Principal moments of inertia (u*A**2) and principal axes
 --------------------------------------------------------

   IA       0.000000          0.000000    0.000000    1.000000
   IB       8.436160          0.000000    1.000000    0.000000
   IC       8.436160          1.000000    0.000000    0.000000


 Rotational constants
 --------------------

@    The molecule is linear.

               B =        59906.28 MHz     (    1.998259 cm-1)


@  Nuclear repulsion energy :   23.622262854657 Hartree


  Symmetry Orbitals
  -----------------

  Number of orbitals in each symmetry:          26   14   14    6   26   14   14    6

  Number of main orbitals in each symmetry:           7    3    3    1    7    3    3    1
  Number of auxiliary functions in each symmetry:    19   11   11    5   19   11   11    5


  Symmetry  Ag ( 1)

    1     N    M   1s         1 +    2
    2     N    M   1s         3 +    4
    3     N    M   1s         5 +    6
    4     N    M   2pz       11 -   12
    5     N    M   2pz       17 -   18
    6     N    M   3d0       23 +   24
    7     N    M   3d2+      27 +   28
    8     N    A   1s        29 +   30
    9     N    A   1s        31 +   32
   10     N    A   1s        33 +   34
   11     N    A   1s        35 +   36
   12     N    A   1s        37 +   38
   13     N    A   2pz       43 -   44
   14     N    A   2pz       49 -   50
   15     N    A   2pz       55 -   56
   16     N    A   2pz       61 -   62
   17     N    A   3d0       67 +   68
   18     N    A   3d2+      71 +   72
   19     N    A   3d0       77 +   78
   20     N    A   3d2+      81 +   82
   21     N    A   3d0       87 +   88
   22     N    A   3d2+      91 +   92
   23     N    A   4f0       99 -  100
   24     N    A   4f2+     103 -  104
   25     N    A   4f0      113 -  114
   26     N    A   4f2+     117 -  118


  Symmetry  B3u( 2)

   27     N    M   2px        7 +    8
   28     N    M   2px       13 +   14
   29     N    M   3d1+      25 -   26
   30     N    A   2px       39 +   40
   31     N    A   2px       45 +   46
   32     N    A   2px       51 +   52
   33     N    A   2px       57 +   58
   34     N    A   3d1+      69 -   70
   35     N    A   3d1+      79 -   80
   36     N    A   3d1+      89 -   90
   37     N    A   4f1+     101 +  102
   38     N    A   4f3+     105 +  106
   39     N    A   4f1+     115 +  116
   40     N    A   4f3+     119 +  120


  Symmetry  B2u( 3)

   41     N    M   2py        9 +   10
   42     N    M   2py       15 +   16
   43     N    M   3d1-      21 -   22
   44     N    A   2py       41 +   42
   45     N    A   2py       47 +   48
   46     N    A   2py       53 +   54
   47     N    A   2py       59 +   60
   48     N    A   3d1-      65 -   66
   49     N    A   3d1-      75 -   76
   50     N    A   3d1-      85 -   86
   51     N    A   4f3-      93 +   94
   52     N    A   4f1-      97 +   98
   53     N    A   4f3-     107 +  108
   54     N    A   4f1-     111 +  112


  Symmetry  B1g( 4)

   55     N    M   3d2-      19 +   20
   56     N    A   3d2-      63 +   64
   57     N    A   3d2-      73 +   74
   58     N    A   3d2-      83 +   84
   59     N    A   4f2-      95 -   96
   60     N    A   4f2-     109 -  110


  Symmetry  B1u( 5)

   61     N    M   1s         1 -    2
   62     N    M   1s         3 -    4
   63     N    M   1s         5 -    6
   64     N    M   2pz       11 +   12
   65     N    M   2pz       17 +   18
   66     N    M   3d0       23 -   24
   67     N    M   3d2+      27 -   28
   68     N    A   1s        29 -   30
   69     N    A   1s        31 -   32
   70     N    A   1s        33 -   34
   71     N    A   1s        35 -   36
   72     N    A   1s        37 -   38
   73     N    A   2pz       43 +   44
   74     N    A   2pz       49 +   50
   75     N    A   2pz       55 +   56
   76     N    A   2pz       61 +   62
   77     N    A   3d0       67 -   68
   78     N    A   3d2+      71 -   72
   79     N    A   3d0       77 -   78
   80     N    A   3d2+      81 -   82
   81     N    A   3d0       87 -   88
   82     N    A   3d2+      91 -   92
   83     N    A   4f0       99 +  100
   84     N    A   4f2+     103 +  104
   85     N    A   4f0      113 +  114
   86     N    A   4f2+     117 +  118


  Symmetry  B2g( 6)

   87     N    M   2px        7 -    8
   88     N    M   2px       13 -   14
   89     N    M   3d1+      25 +   26
   90     N    A   2px       39 -   40
   91     N    A   2px       45 -   46
   92     N    A   2px       51 -   52
   93     N    A   2px       57 -   58
   94     N    A   3d1+      69 +   70
   95     N    A   3d1+      79 +   80
   96     N    A   3d1+      89 +   90
   97     N    A   4f1+     101 -  102
   98     N    A   4f3+     105 -  106
   99     N    A   4f1+     115 -  116
  100     N    A   4f3+     119 -  120


  Symmetry  B3g( 7)

  101     N    M   2py        9 -   10
  102     N    M   2py       15 -   16
  103     N    M   3d1-      21 +   22
  104     N    A   2py       41 -   42
  105     N    A   2py       47 -   48
  106     N    A   2py       53 -   54
  107     N    A   2py       59 -   60
  108     N    A   3d1-      65 +   66
  109     N    A   3d1-      75 +   76
  110     N    A   3d1-      85 +   86
  111     N    A   4f3-      93 -   94
  112     N    A   4f1-      97 -   98
  113     N    A   4f3-     107 -  108
  114     N    A   4f1-     111 -  112


  Symmetry  Au ( 8)

  115     N    M   3d2-      19 -   20
  116     N    A   3d2-      63 -   64
  117     N    A   3d2-      73 -   74
  118     N    A   3d2-      83 -   84
  119     N    A   4f2-      95 +   96
  120     N    A   4f2-     109 +  110

  Number of floating/multiple basis set orbitals :    2

  Symmetries of electric field:  B3u(2)  B2u(3)  B1u(5)

  Symmetries of magnetic field:  B3g(7)  B2g(6)  B1g(4)


                     .---------------------------------------.
                     | Starting in Integral Section (HERMIT) |
                     `---------------------------------------'



 ***************************************************************************************
 ****************** Output from **INTEGRALS input processing (HERMIT) ******************
 ***************************************************************************************



    *************************************************************************
    ****************** Output from HERMIT input processing ******************
    *************************************************************************


 Default print level:        1

 * Nuclear model: Point charge

 Calculation of one- and two-electron Hamiltonian integrals.

 The following one-electron property integrals are calculated as requested:
          - overlap integrals
          - Cartesian multipole moment integrals of orders 2 and lower

 Center of mass  (bohr):      0.000000000000      0.000000000000      0.000000000000
 Operator center (bohr):      0.000000000000      0.000000000000      0.000000000000
 Gauge origin    (bohr):      0.000000000000      0.000000000000      0.000000000000
 Dipole origin   (bohr):      0.000000000000      0.000000000000      0.000000000000


     ************************************************************************
     ************************** Output from HERINT **************************
     ************************************************************************


 Threshold for neglecting two-electron integrals:  1.00D-15
 HERMIT - Number of two-electron integrals written:       18482 (  0.1% )
 HERMIT - Megabytes written:                              0.213

 >>>> Total CPU  time used in HERMIT:   0.08 seconds
 >>>> Total wall time used in HERMIT:   0.09 seconds


                        .----------------------------------.
                        | End of Integral Section (HERMIT) |
                        `----------------------------------'



                   .--------------------------------------------.
                   | Starting in Wave Function Section (SIRIUS) |
                   `--------------------------------------------'

 NCCEXCI for singlet:           2           2           2           2           2           2           2           2

 >>>> Detected R12 input:
 Direct Fock matrix formation switched on!
 Scale factors for CC excitations manifolds:
 for bra states (projection manifold):   1.0000000000000000     
 for ket states (operator manifold)  :   1.0000000000000000     

 **********************************************************************
 *SIRIUS* a direct, restricted step, second order MCSCF program       *
 **********************************************************************

 
     Date and time (Linux)  : Mon Mar  9 09:45:55 2015
     Host name              : foeroyar                                

 Title lines from ".mol" input file:
     N2                                                                      
                                                                             

 Print level on unit LUPRI =   2 is   0
 Print level on unit LUW4  =   2 is   5

@    (Integral direct) CC calculation.

@    This is a combination run starting with
@              a restricted, closed shell Hartree-Fock calculation

 Fock matrices are calculated directly without use of integrals on disk.

 Initial molecular orbitals are obtained according to
 ".MOSTART H1DIAG" input option

     Wave function specification
     ============================

     For the specification of the Coupled Cluster: see later.

@    Wave function type        >>> CC <<<
@    Number of closed shell electrons          14
@    Number of electrons in active shells       0
@    Total charge of the molecule               0

@    Spin multiplicity and 2 M_S                1         0
@    Total number of symmetries                 8 (point group: D2h)
@    Reference state symmetry                   1 (irrep name : Ag )

     Orbital specifications
     ======================
@    Abelian symmetry species          All |    1    2    3    4    5    6    7    8
@                                          |  Ag   B3u  B2u  B1g  B1u  B2g  B3g  Au 
                                       --- |  ---  ---  ---  ---  ---  ---  ---  ---
@    Total number of orbitals           28 |    7    3    3    1    7    3    3    1
@    Number of basis functions         120 |   26   14   14    6   26   14   14    6

      ** Automatic occupation of RHF orbitals **

      -- Initial occupation of symmetries is determined from diagonal of H1 matrix.           
      -- Initial occupation of symmetries is :
@    Occupied SCF orbitals               7 |    2    1    1    0    2    1    0    0

     Maximum number of Fock   iterations      0
     Maximum number of DIIS   iterations     60
     Maximum number of QC-SCF iterations     60
     Threshold for SCF convergence     1.00D-06


 Changes of defaults for CC:
 ---------------------------


 -Iterative triple excitations included 

 -Implicit frozen core calculation
 -Excitation energies calculated
  


 ***********************************************
 ***** DIIS acceleration of SCF iterations *****
 ***********************************************

 C1-DIIS algorithm; max error vectors =    8

 Automatic occupation of symmetries with  14 electrons.

 Iter     Total energy    Error norm  Delta(E)    SCF occupation
 -----------------------------------------------------------------------------

***  INFO  GETGAB: GABAOXXX not found on AOPROPER. Regenerating.
   1  Screening settings (-IFTHRS, JTDIIS, DIFDEN, times)   -7    1    T  4.78D-02  4.90D-02
@  1  -99.9001864071       8.40D+00  -9.99D+01     2   1   1   0   2   1   0   0
      Virial theorem: -V/T =      1.764633
@      MULPOP N   _1  0.00; N   _2  0.00; 
 -----------------------------------------------------------------------------
   2  Screening settings (-IFTHRS, JTDIIS, DIFDEN, times)   -7    2    T  1.77D-02  1.70D-02
@  2  -106.570310257       6.17D+00  -6.67D+00     3   1   1   0   2   0   0   0
      Virial theorem: -V/T =      2.068770
@      MULPOP N   _1 -0.00; N   _2 -0.00; 
 -----------------------------------------------------------------------------
   3  Screening settings (-IFTHRS, JTDIIS, DIFDEN, times)   -7    3    T  1.69D-02  1.80D-02
@  3  -108.865279143       1.19D+00  -2.29D+00     3   1   1   0   2   0   0   0
      Virial theorem: -V/T =      2.012756
@      MULPOP N   _1 -0.00; N   _2 -0.00; 
 -----------------------------------------------------------------------------
   4  Screening settings (-IFTHRS, JTDIIS, DIFDEN, times)   -7    4    T  1.75D-02  1.70D-02
@  4  -108.950976418       1.76D-01  -8.57D-02     3   1   1   0   2   0   0   0
      Virial theorem: -V/T =      2.003482
@      MULPOP N   _1 -0.00; N   _2 -0.00; 
 -----------------------------------------------------------------------------
   5  Screening settings (-IFTHRS, JTDIIS, DIFDEN, times)   -9    5    F  1.83D-02  1.80D-02
@  5  -108.954044241       3.10D-02  -3.07D-03     3   1   1   0   2   0   0   0
      Virial theorem: -V/T =      2.001925
@      MULPOP N   _1 -0.00; N   _2 -0.00; 
 -----------------------------------------------------------------------------
   6  Screening settings (-IFTHRS, JTDIIS, DIFDEN, times)   -9    6    T  1.74D-02  1.70D-02
@  6  -108.954129979       2.88D-03  -8.57D-05     3   1   1   0   2   0   0   0
      Virial theorem: -V/T =      2.002181
@      MULPOP N   _1  0.00; N   _2  0.00; 
 -----------------------------------------------------------------------------
   7  Screening settings (-IFTHRS, JTDIIS, DIFDEN, times)  -12    7    F  1.78D-02  1.70D-02
@  7  -108.954130754       4.22D-04  -7.75D-07     3   1   1   0   2   0   0   0
      Virial theorem: -V/T =      2.002201
@      MULPOP N   _1  0.00; N   _2  0.00; 
 -----------------------------------------------------------------------------
   8  Screening settings (-IFTHRS, JTDIIS, DIFDEN, times)  -12    8    T  1.77D-02  1.80D-02
@  8  -108.954130767       5.21D-05  -1.27D-08     3   1   1   0   2   0   0   0
      Virial theorem: -V/T =      2.002196
@      MULPOP N   _1 -0.00; N   _2 -0.00; 
 -----------------------------------------------------------------------------
   9  Screening settings (-IFTHRS, JTDIIS, DIFDEN, times)  -12    9    T  1.76D-02  1.70D-02
@  9  -108.954130767       3.27D-06  -1.91D-10     3   1   1   0   2   0   0   0
      Virial theorem: -V/T =      2.002197
@      MULPOP N   _1 -0.00; N   _2 -0.00; 
 -----------------------------------------------------------------------------
  10  Screening settings (-IFTHRS, JTDIIS, DIFDEN, times)  -12   10    T  1.91D-02  1.90D-02
@ 10  -108.954130767       3.72D-07  -8.81D-13     3   1   1   0   2   0   0   0

@ *** DIIS converged in  10 iterations !
@     Converged SCF energy, gradient:   -108.954130766747    3.72D-07
    - total time used in SIRFCK :              0.00 seconds


 *** SCF orbital energy analysis ***

 Only the 20 lowest virtual orbital energies printed in each symmetry.

 Number of electrons :   14
 Orbital occupations :    3    1    1    0    2    0    0    0

 Sym       Hartree-Fock orbital energies

1 Ag    -15.68643307    -1.47120861    -0.62622751     0.82008401     0.99224377
          1.75739119     2.87449465

2 B3u    -0.60815947     0.87221403     1.88205528

3 B2u    -0.60815948     0.87221403     1.88205528

4 B1g     1.75739119

5 B1u   -15.68303019    -0.77409692     0.59463530     1.14441037     1.64322975
          2.29898756     3.28384197

6 B2g     0.17565813     1.05104249     2.99647721

7 B3g     0.17565813     1.05104249     2.99647721

8 Au      2.29898756

    E(LUMO) :     0.17565813 au (symmetry 6)
  - E(HOMO) :    -0.60815947 au (symmetry 2)
  ------------------------------------------
    gap     :     0.78381760 au

 >>> Writing SIRIFC interface file

  Canonical primary and secondary basis sets
  ISYM       NORB1 MBAS1       NORB2 MBAS2
     1           7     7          19    19
     2           3     3          11    11
     3           3     3          11    11
     4           1     1           5     5
     5           7     7          19    19
     6           3     3          11    11
     7           3     3          11    11
     8           1     1           5     5

 Computation of exchange matrix done [6]

 AUXILIARY BASIS LOW EIGENVALUES
 ISYM         EIGENVALUE
   1      0.000096872458
   2      0.000660871547
   3      0.000660871525
   4      0.007866326621
   5      0.000002552835
   6      0.000078816183
   7      0.000078816181
   8      0.003044914027
 >>>  Time used in R12AUX     is   0.44 seconds

 >>>> CPU and wall time for SCF :       0.655       0.660


                       .-----------------------------------.
                       | >>> Final results from SIRIUS <<< |
                       `-----------------------------------'


@    Spin multiplicity:           1
@    Spatial symmetry:            1 ( irrep  Ag  in D2h )
@    Total charge of molecule:    0

@    Final HF energy:            -108.954130766747                 
@    Nuclear repulsion:            23.622262854657
@    Electronic energy:          -132.576393621403

@    Final gradient norm:           0.000000371926

 
     Date and time (Linux)  : Mon Mar  9 09:45:56 2015
     Host name              : foeroyar                                

File label for MO orbitals:   9Mar15   FOCKDIIS

 (Only coefficients >0.0100 are printed.)

 Molecular orbitals for symmetry species 1  (Ag )
 ------------------------------------------------

    Orbital         1        2        3        4        5        6        7
   1 N   :1s     0.7069  -0.0087  -0.0114  -0.1577   0.4269   0.0000   0.3871
   2 N   :1s     0.0008   0.6660   0.1916  -0.6015   2.0701   0.0000   1.4523
   3 N   :1s    -0.0000  -0.1914   0.2197   0.3502  -2.1305  -0.0000  -1.1688
   4 N   :2pz   -0.0020  -0.3214   0.6703   0.6790   0.3971   0.0000  -0.5399
   5 N   :2pz    0.0015   0.1123  -0.0966  -1.2599  -0.3650  -0.0000   0.8000
   6 N   :3d0    0.0004   0.0285  -0.0250  -0.0714   0.0636   0.0000  -0.8354
   7 N   :3d2+   0.0000  -0.0000   0.0000   0.0000  -0.0000   0.6530   0.0000

 Molecular orbitals for symmetry species 2  (B3u)
 ------------------------------------------------

    Orbital         1        2        3
   1 N   :2px    0.6293  -0.9478   0.4272
   2 N   :2px   -0.0339   1.0580  -0.2665
   3 N   :3d1+  -0.0475   0.1034   0.5954

 Molecular orbitals for symmetry species 3  (B2u)
 ------------------------------------------------

    Orbital         1        2        3
   1 N   :2py    0.6293   0.9478   0.4272
   2 N   :2py   -0.0339  -1.0580  -0.2665
   3 N   :3d1-  -0.0475  -0.1034   0.5954

 Molecular orbitals for symmetry species 4  (B1g)
 ------------------------------------------------

    Orbital         1
   1 N   :3d2-   0.6530

 Molecular orbitals for symmetry species 5  (B1u)
 ------------------------------------------------

    Orbital         1        2        3        4        5        6        7
   1 N   :1s     0.7080   0.0035  -0.0307  -0.1454   0.6467   0.0000   0.1809
   2 N   :1s     0.0033   0.6527   0.3363  -0.4514   2.8669   0.0000   0.9629
   3 N   :1s    -0.0045   0.0441   3.7484   0.9095  -7.7517  -0.0000   2.6620
   4 N   :2pz   -0.0035   0.3186  -0.0889  -1.1151  -0.1893   0.0000  -1.5832
   5 N   :2pz    0.0030  -0.0331  -2.5926   0.7022   2.8242  -0.0000  -0.9000
   6 N   :3d0    0.0012  -0.0134   0.0539  -0.2305  -0.2175  -0.0000   1.1999
   7 N   :3d2+   0.0000  -0.0000  -0.0000   0.0000  -0.0000   0.7773   0.0000

 Molecular orbitals for symmetry species 6  (B2g)
 ------------------------------------------------

    Orbital         1        2        3
   1 N   :2px   -0.6312   1.0812  -0.3592
   2 N   :2px   -0.3857  -1.6571  -0.2976
   3 N   :3d1+  -0.0130   0.0688   1.1037

 Molecular orbitals for symmetry species 7  (B3g)
 ------------------------------------------------

    Orbital         1        2        3
   1 N   :2py   -0.6312   1.0812  -0.3592
   2 N   :2py   -0.3857  -1.6571  -0.2976
   3 N   :3d1-  -0.0130   0.0688   1.1037

 Molecular orbitals for symmetry species 8  (Au )
 ------------------------------------------------

    Orbital         1
   1 N   :3d2-   0.7773



 >>>> Total CPU  time used in SIRIUS :      0.66 seconds
 >>>> Total wall time used in SIRIUS :      0.67 seconds

 
     Date and time (Linux)  : Mon Mar  9 09:45:56 2015
     Host name              : foeroyar                                

 NOTE:    2 warnings have been issued.
 Check output, result, and error files for "WARNING".


                     .---------------------------------------.
                     | End of Wave Function Section (SIRIUS) |
                     `---------------------------------------'



                    .------------------------------------------.
                    | Starting in Coupled Cluster Section (CC) |
                    `------------------------------------------'

  

 *******************************************************************************
 *******************************************************************************
 *                                                                             *
 *                                                                             *
 *                    START OF COUPLED CLUSTER CALCULATION                     *
 *                                                                             *
 *                                                                             *
 *******************************************************************************
 *******************************************************************************


  I am freezing!
  >> output from FNDMN3 <<
  NUMBER OF ELEMENTS OBTAINED IN FNDMN3            2
  FROM FNDMN3 : 
    PLACES OF LOWEST ELEMENTS 
     1 :      1     15
  MIN AND MAX IN SELECTED SUPSPACE   -15.686433072927455       -15.683030186174886     
 Freezing HF-orbital   1 of symmetry   1 and with orbital energy  -15.6864
 Freezing HF-orbital  15 of symmetry   5 and with orbital energy  -15.6830
 In total frozen-core per symmetry-class:  1  0  0  0  1  0  0  0
 


 CCR12 ANSATZ =   1

 CCR12 APPROX =   7

 Before INIT1 in ccsd_r12

  I am freezing!
 Freezing HF-orbital   1 of symmetry   1 and with orbital energy  -15.6864
 Freezing HF-orbital  66 of symmetry   5 and with orbital energy  -15.6830
 In total frozen-core per symmetry-class:  1  0  0  0  1  0  0  0
 
 After INIT1 in ccsd_r12
   NRHF   :       2       1       1       0       1       1       1       0
   NRHFS  :       3       1       1       0       2       1       1       0
   NORB1  :       7       3       3       1       7       3       3       1
   NORB2  :      19      11      11       5      19      11      11       5

 Number of primary orbitals             :           28
 Number of secondary orbitals           :           92
 Total number of orbitals               :          120
 Total number of basis functions        :          120
 Number of (i|p') integrals             :          134
 Number of (i|u') integrals             :          134
 Number of (Ip'|1/r12|jL) integrals     :          536
 Number of (ip'|1/r12|jq') integrals    :        46324
 Number of (ip'|r12|jq') integrals      :        46324
 Number of (ip'|[T1,r12]|jq') integrals :        91808
 Threshold for R12 contributions            =  0.00000    
 Threshold for singular value decomposition = 0.100000E-11

 The B matrix is transformed into an orthogonal basis
 and inverted by diagonalization

 ******************************************************************************
 The MP2-R12/A and MP2-R12/B energies are computed as described in:
 W. Klopper and C. C. M. Samson, J. Chem. Phys. 116, 6397-6410 (2002).
 ------------------------------------------------------------------------------
 Ansatz 1 is used and results are printed for approximations A and B.
 ******************************************************************************

 Core memory required by CCSD_R12 :         286225  (double words)

 ccsd_r12.11
 ccsd_r12.12
 Computation of (ip'|r12|jq') integrals done
 >>>  Time used in R  [6]     is   1.81 seconds
 Backtransformation of (ip'|r12|jq') integrals done
 Computation of (ip'|1/r12|jq') integrals done
 >>>  Time used in 1/R[5]     is   0.52 seconds
 Computation of (ip'|r12|jq')X(p'r')(kr'|r12|lq') integrals done
 Computation of (i'p'|r12|jq') integrals done
 >>>  Time used in R  [6]     is   1.90 seconds
 Computation of (ip'|[T,r12]|jq') integrals done
 >>>  Time used in T,R[5]     is   0.69 seconds


                 +-----------------------------------------------+
                 ! MP2-R12 ansatz := (1 - P1 - P2 + P1*P2) * R12 !
                 +-----------------------------------------------+


 SECOND-ORDER PAIR ENERGIES:

                    1   -0.008763678    0.000000000
                    2   -0.006246612   -0.002669076
                    3   -0.012480861    0.000000000
                    4   -0.010791034   -0.008771105
                    5   -0.007667963   -0.018999105
                    6   -0.025472360    0.000000000
                    7   -0.010791034   -0.008771105
                    8   -0.007667963   -0.018999105
                    9   -0.018532276   -0.035605762
                   10   -0.025472360    0.000000000
                   11   -0.003148442   -0.003586569
                   12   -0.016876936   -0.003024140
                   13   -0.008409981   -0.011123628
                   14   -0.008409981   -0.011123627
                   15   -0.012886293    0.000000000

 MP2 =   -0.306290996   -0.183617775   -0.122673222


                         +--------------------------------+
                         ! Auxiliary-basis MP2-R12 method !
                         +--------------------------------+


 SECOND-ORDER R12/A PAIR ENERGIES:

   1   -0.008763678   -0.013861662    0.000000000   -0.000000000    0.839461        0.829730    
   2   -0.006246612   -0.008830985   -0.002669076   -0.002922745    0.839461        0.829730    
   3   -0.012480861   -0.015847508    0.000000000   -0.000000000    0.839461        0.829730    
   4   -0.010791034   -0.013533306   -0.008771105   -0.009545668    0.839461        0.829730    
   5   -0.007667963   -0.009313503   -0.018999105   -0.020009391    0.839461        0.829730    
   6   -0.025472360   -0.029301575    0.000000000   -0.000000000    0.839461        0.829730    
   7   -0.010791034   -0.013533306   -0.008771105   -0.009545668    0.839461        0.829730    
   8   -0.007667963   -0.009313503   -0.018999105   -0.020009390    0.839461        0.829730    
   9   -0.018532276   -0.020493400   -0.035605762   -0.037175209    0.839461        0.829730    
  10   -0.025472360   -0.029301575    0.000000000   -0.000000000    0.839461        0.829730    
  11   -0.003148442   -0.004655209   -0.003586569   -0.003871892    0.839461        0.829730    
  12   -0.016876936   -0.020982297   -0.003024140   -0.003123188    0.839461        0.829730    
  13   -0.008409981   -0.009874971   -0.011123628   -0.011681622    0.839461        0.829730    
  14   -0.008409981   -0.009874971   -0.011123627   -0.011681622    0.839461        0.829730    
  15   -0.012886293   -0.015651257    0.000000000   -0.000000000    0.839461        0.829730    

       -0.183617775   -0.224369030   -0.122673222   -0.129566395

              MP2-R12/A   correlation energy =   -0.353935425

 SECOND-ORDER R12/B PAIR ENERGIES:

   1   -0.008763678   -0.012588929    0.000000000   -0.000000000     3.80665         3.83481    
   2   -0.006246612   -0.008271230   -0.002669076   -0.002864355     2.96167         2.98983    
   3   -0.012480861   -0.015227910    0.000000000   -0.000000000     2.11669         2.14485    
   4   -0.010791034   -0.012888169   -0.008771105   -0.009323188     2.94360         2.97176    
   5   -0.007667963   -0.008991864   -0.018999105   -0.019809029     2.09862         2.12678    
   6   -0.025472360   -0.028367328    0.000000000   -0.000000000     2.08055         2.10871    
   7   -0.010791034   -0.012888169   -0.008771105   -0.009323188     2.94360         2.97176    
   8   -0.007667963   -0.008991864   -0.018999105   -0.019809029     2.09862         2.12678    
   9   -0.018532276   -0.019952143   -0.035605762   -0.036634652     2.08055         2.10871    
  10   -0.025472360   -0.028367328    0.000000000   -0.000000000     2.08055         2.10871    
  11   -0.003148442   -0.004192265   -0.003586569   -0.003797046     3.10954         3.13770    
  12   -0.016876936   -0.020241097   -0.003024140   -0.003106661     2.26456         2.29272    
  13   -0.008409981   -0.009548969   -0.011123628   -0.011517428     2.24649         2.27465    
  14   -0.008409981   -0.009548969   -0.011123627   -0.011517428     2.24649         2.27465    
  15   -0.012886293   -0.014997237    0.000000000   -0.000000000     2.41242         2.44059    

       -0.183617775   -0.215063475   -0.122673222   -0.127702004

              MP2-R12/B   correlation energy =   -0.342765479
 Time for MP2-R12 part cpu :   4.9726740000000005     
 Time for MP2-R12 part wall:   4.9779999852180481     

  I am freezing!
  >> output from FNDMN3 <<
  NUMBER OF ELEMENTS OBTAINED IN FNDMN3            2
  FROM FNDMN3 : 
    PLACES OF LOWEST ELEMENTS 
     1 :      1     15
  MIN AND MAX IN SELECTED SUPSPACE   -15.686433072927455       -15.683030186174886     
 Freezing HF-orbital   1 of symmetry   1 and with orbital energy  -15.6864
 Freezing HF-orbital  15 of symmetry   5 and with orbital energy  -15.6830
 In total frozen-core per symmetry-class:  1  0  0  0  1  0  0  0
 
 Preparing R12 V-interm. ... ONEAUX= F
 Time used for V^albe_kl cpu:  0.17714599999999958     
 Time used for V^albe_kl wall:  0.17799997329711914     

   

 *******************************************************************
 *                                                                 *
 *<<<<<<<<<<                                             >>>>>>>>>>*
 *<<<<<<<<<< OUTPUT FROM COUPLED CLUSTER ENERGY PROGRAM  >>>>>>>>>>*
 *<<<<<<<<<<                                             >>>>>>>>>>*
 *                                                                 *
 *******************************************************************


             The Direct Coupled Cluster Energy Program
             -----------------------------------------


          Number of t1 amplitudes                 :        17
          Number of t2 amplitudes                 :       802
          Number of t2' amplitudes for R12 part   :       105
          Total number of amplitudes in ccsd      :       924

 Iter.  1: Coupled cluster MP2-R12/B energy :    -109.2968962455664155
     Conventional correlation energy:    -0.3062909964090892
     R12 correlation energy         :    -0.0364744824107898
     Total correlation energy       :    -0.3427654788198791


       Iteration no.:  1
       -----------------

       Time used in   RHS - TOTAL  :       0.02 seconds
       Norm^2 of omega1 after ccvec:        0.2949374980D-02
       Norm^2 of omega2 after ccvec:        0.8948199034D-02
       Norm^2 of Omegar12  in NXTAM:        0.9353256815D-04
 Iter.  1: Coupled cluster CC3(R12)/B energy :    -109.2899573891904765
     Conventional correlation energy:    -0.3038260568451392
     R12 correlation energy         :    -0.0320005655988088
     Total correlation energy       :    -0.3358266224439480


       Iteration no.:  2
       -----------------

       Time used in   RHS - TOTAL  :       0.02 seconds
       Norm^2 of omega1 after ccvec:        0.4056407324D-04
       Norm^2 of omega2 after ccvec:        0.1424109401D-02
       Norm^2 of Omegar12  in NXTAM:        0.3803836602D-06
 Iter.  2: Coupled cluster CC3(R12)/B energy :    -109.3000113737077754
     Conventional correlation energy:    -0.3139767654834600
     R12 correlation energy         :    -0.0319038414777861
     Total correlation energy       :    -0.3458806069612461


       Iteration no.:  3
       -----------------

       Time used in   RHS - TOTAL  :       0.02 seconds
       Norm^2 of omega1 after ccvec:        0.1696861938D-04
       Norm^2 of omega2 after ccvec:        0.1636152829D-03
       Norm^2 of Omegar12  in NXTAM:        0.2035631641D-06
 Iter.  3: Coupled cluster CC3(R12)/B energy :    -109.3016671695854569
     Conventional correlation energy:    -0.3158877550657024
     R12 correlation energy         :    -0.0316486477732304
     Total correlation energy       :    -0.3475364028389328


       Iteration no.:  4
       -----------------

       Time used in   RHS - TOTAL  :       0.02 seconds
       Norm^2 of omega1 after ccvec:        0.1009212281D-06
       Norm^2 of omega2 after ccvec:        0.1713053866D-04
       Norm^2 of Omegar12  in NXTAM:        0.3153701208D-08
 Iter.  4: Coupled cluster CC3(R12)/B energy :    -109.3022642600313645
     Conventional correlation energy:    -0.3164791733170489
     R12 correlation energy         :    -0.0316543199677869
     Total correlation energy       :    -0.3481334932848358


       Iteration no.:  5
       -----------------

       Time used in   RHS - TOTAL  :       0.02 seconds
       Norm^2 of omega1 after ccvec:        0.3152606592D-07
       Norm^2 of omega2 after ccvec:        0.1043807794D-05
       Norm^2 of Omegar12  in NXTAM:        0.4170508051D-09
 Iter.  5: Coupled cluster CC3(R12)/B energy :    -109.3022029461562141
     Conventional correlation energy:    -0.3164128760312650
     R12 correlation energy         :    -0.0316593033784181
     Total correlation energy       :    -0.3480721794096832


       Iteration no.:  6
       -----------------

       Time used in   RHS - TOTAL  :       0.02 seconds
       Norm^2 of omega1 after ccvec:        0.1739168898D-08
       Norm^2 of omega2 after ccvec:        0.4054264447D-07
       Norm^2 of Omegar12  in NXTAM:        0.1836702985D-10
 Iter.  6: Coupled cluster CC3(R12)/B energy :    -109.3022093820866161
     Conventional correlation energy:    -0.3164207388342959
     R12 correlation energy         :    -0.0316578765057829
     Total correlation energy       :    -0.3480786153400788


       Iteration no.:  7
       -----------------

       Time used in   RHS - TOTAL  :       0.02 seconds
       Norm^2 of omega1 after ccvec:        0.5768995040D-10
       Norm^2 of omega2 after ccvec:        0.2085505157D-08
       Norm^2 of Omegar12  in NXTAM:        0.6945237935D-12
 Iter.  7: Coupled cluster CC3(R12)/B energy :    -109.3022110649480112
     Conventional correlation energy:    -0.3164223591471682
     R12 correlation energy         :    -0.0316579390543113
     Total correlation energy       :    -0.3480802982014795


       Iteration no.:  8
       -----------------

       Time used in   RHS - TOTAL  :       0.02 seconds
       Norm^2 of omega1 after ccvec:        0.2601562696D-11
       Norm^2 of omega2 after ccvec:        0.8578367821D-10
       Norm^2 of Omegar12  in NXTAM:        0.1773608818D-13
 Iter.  8: Coupled cluster CC3(R12)/B energy :    -109.3022109015242620
     Conventional correlation energy:    -0.3164221531000351
     R12 correlation energy         :    -0.0316579816776916
     Total correlation energy       :    -0.3480801347777267


       Iteration no.:  9
       -----------------

       Time used in   RHS - TOTAL  :       0.02 seconds
       Norm^2 of omega1 after ccvec:        0.3831065267D-13
       Norm^2 of omega2 after ccvec:        0.1792147803D-11
       Norm^2 of Omegar12  in NXTAM:        0.4938523435D-15
 Iter.  9: Coupled cluster CC3(R12)/B energy :    -109.3022109238196862
     Conventional correlation energy:    -0.3164221805359517
     R12 correlation energy         :    -0.0316579765372068
     Total correlation energy       :    -0.3480801570731585


       Iteration no.: 10
       -----------------

       Time used in   RHS - TOTAL  :       0.02 seconds
       Norm^2 of omega1 after ccvec:        0.7676393154D-14
       Norm^2 of omega2 after ccvec:        0.2789619514D-12
       Norm^2 of Omegar12  in NXTAM:        0.4229525149D-16
 Iter. 10: Coupled cluster CC3(R12)/B energy :    -109.3022109306690481
     Conventional correlation energy:    -0.3164221880954585
     R12 correlation energy         :    -0.0316579758270655
     Total correlation energy       :    -0.3480801639225241


 CC3(R12)/B energy converged to within   0.10D-07 is         -109.302210930669
 Final 2-norm of the CC vector function:  5.35386164D-07
 R12       energy converged to within   0.10D-07 is     -0.031657976


                    +------------------------------------------+
                    ! Largest amplitudes in converged solution !
                    +------------------------------------------+



          CC_PRAM:Overall Contribution of the Different Components
          --------------------------------------------------------



          Single Excitation Contribution :               1.5271 %

          Double Excitation Contribution :              98.4729 %

          ||T1||/||T2||                  :               0.1245

          Tau1 diagnostic                :               0.0104

          Norm of Total Amplitude Vector :               0.2668


 +=============================================================================+
 | symmetry|  orbital index  |   Excitation Numbers             |   Amplitude  |
 |  Index  |   a   b   i   j |      NAI      NBJ |     NAIBJ    |              |
 +=============================================================================+
 | 1   1   |   2       2     |        6          |              |   -0.004410  |
 | 2   2   |   1       1     |        9          |              |   -0.017304  |
 | 2   2   |   2       1     |       10          |              |    0.012442  |
 | 3   3   |   1       1     |       11          |              |    0.017304  |
 | 3   3   |   2       1     |       12          |              |    0.012442  |
 | 5   5   |   1       1     |       13          |              |    0.004937  |
 | 5   5   |   2       1     |       14          |              |    0.009934  |
 | 5   5   |   3       1     |       15          |              |    0.004591  |
 +-----------------------------------------------------------------------------+
 | 6 6 5 5 |   1   1   1   1 |       10       10 |          208 |   -0.050802  |
 | 7 7 5 5 |   1   1   1   1 |       10       10 |          286 |   -0.050802  |
 | 5 5 1 1 |   2   2   2   2 |        7        7 |          365 |   -0.034862  |
 | 6 6 2 2 |   1   1   1   1 |       11       11 |          403 |   -0.108256  |
 | 6 6 2 2 |   2   1   1   1 |       12       11 |          414 |    0.035595  |
 | 7 6 3 2 |   1   1   1   1 |       14       11 |          439 |   -0.070702  |
 | 7 7 3 3 |   1   1   1   1 |       14       14 |          442 |   -0.108256  |
 | 7 7 3 3 |   2   1   1   1 |       15       14 |          456 |    0.035595  |
 +=============================================================================+


          Norm of Printed Amplitude Vector :             0.1960

          Printed all single excitations greater than 0.004119

          Printed all double excitations greater than 0.033078





             +-------------------------------------------------------+
             ! Final results from the Coupled Cluster energy program !
             +-------------------------------------------------------+



            Total SCF   energy:                  -108.9541307667

            Total MP2-R12/B energy:              -109.2968962456

            Total CC3(R12)/B energy:             -109.3022109307




                   +--------------------------------------------+
                   ! Calculating singlet intermediates for CCLR !
                   +--------------------------------------------+



       Time used in   RHS - TOTAL  :       0.01 seconds


            E-intermediates calculated 
            Fock-intermediate calculated 
            Gamma-intermediate calculated 
            BF-intermediate calculated 
            C-intermediate calculated 
            D-intermediate calculated 


   

 *******************************************************************
 *                                                                 *
 *<<<<<<<<<< OUTPUT FROM COUPLED CLUSTER LINEAR RESPONSE >>>>>>>>>>*
 *                                                                 *
 *<<<<<<<<<<     CALCULATION OF EXCITATION ENERGIES      >>>>>>>>>>*
 *                                                                 *
 *******************************************************************



                            +--------------------------+
                            !  CC3 Excitation Energies !
                            +--------------------------+


 --------------------------
 Symmetry class Nr.:     1
 Multiplicity      :     1
 --------------------------

 Length of Excitation vectors in this class is:       924
 Converging for  2 roots.
  >> output from FNDMN3 <<
  NUMBER OF ELEMENTS OBTAINED IN FNDMN3            4
  FROM FNDMN3 : 
    PLACES OF LOWEST ELEMENTS 
     1 :     13      5      9     11
  MIN AND MAX IN SELECTED SUPSPACE    1.3687322229250576        1.4803735073326854     
 Start vector guessed from diagonal
 ... selected element no. 13
 Start vector guessed from diagonal
 ... selected element no.  5



 >>>>> COUPLED CLUSTER RESPONSE SOLVER <<<<<

    Iter  #Vectors  time (min)   residual
    --------------------------------------

 REDUCED EIGENVALUES real part:

               Column   1
       1       1.11364933
       2       1.18920094
    ==== End of matrix output ====
  
 ROOT:  1 RESIDUAL TOT: 3.75083D-01
 ROOT:  2 RESIDUAL TOT: 3.97300D-01
      1       2         0.00     0.40E+00

 Lowest eigenvalues in this iteration: 

               Column   1
       1       1.11364933
       2       1.18920094
    ==== End of matrix output ====
 Dimension of the reduced space:     4
 >>> TIME USED IN THIS MICRO ITERATION        0.13


 REDUCED EIGENVALUES real part:

               Column   1
       1       0.96691216
       2       1.04431239
    ==== End of matrix output ====
  
 ROOT:  1 RESIDUAL TOT: 1.39921D-01
 ROOT:  2 RESIDUAL TOT: 1.34846D-01
      2       2         0.00     0.14E+00

 Lowest eigenvalues in this iteration: 

               Column   1
       1       0.96691216
       2       1.04431239
    ==== End of matrix output ====
 Dimension of the reduced space:     6
 >>> TIME USED IN THIS MICRO ITERATION        0.13


 REDUCED EIGENVALUES real part:

               Column   1
       1       0.94736731
       2       1.02626572
    ==== End of matrix output ====
  
 ROOT:  1 RESIDUAL TOT: 7.95349D-02
 ROOT:  2 RESIDUAL TOT: 6.77752D-02
      3       2         0.00     0.80E-01

 Lowest eigenvalues in this iteration: 

               Column   1
       1       0.94736731
       2       1.02626572
    ==== End of matrix output ====
 Dimension of the reduced space:     8
 >>> TIME USED IN THIS MICRO ITERATION        0.13


 REDUCED EIGENVALUES real part:

               Column   1
       1       0.93989337
       2       1.02283174
    ==== End of matrix output ====
  
 ROOT:  1 RESIDUAL TOT: 5.31009D-02
 ROOT:  2 RESIDUAL TOT: 4.15793D-02
      4       2         0.00     0.53E-01

 Lowest eigenvalues in this iteration: 

               Column   1
       1       0.93989337
       2       1.02283174
    ==== End of matrix output ====
 Dimension of the reduced space:    10
 >>> TIME USED IN THIS MICRO ITERATION        0.13


 REDUCED EIGENVALUES real part:

               Column   1
       1       0.92920745
       2       1.01870333
    ==== End of matrix output ====
  
 ROOT:  1 RESIDUAL TOT: 8.56248D-02
 ROOT:  2 RESIDUAL TOT: 6.89539D-02
      5       2         0.00     0.86E-01

 Lowest eigenvalues in this iteration: 

               Column   1
       1       0.92920745
       2       1.01870333
    ==== End of matrix output ====
 Dimension of the reduced space:    12
 >>> TIME USED IN THIS MICRO ITERATION        0.13


 REDUCED EIGENVALUES real part:

               Column   1
       1       0.83355493
       2       0.94814632
    ==== End of matrix output ====
  
 ROOT:  1 RESIDUAL TOT: 2.42151D-01
 ROOT:  2 RESIDUAL TOT: 1.11661D-01
      6       2         0.00     0.24E+00

 Lowest eigenvalues in this iteration: 

               Column   1
       1       0.83355493
       2       0.94814632
    ==== End of matrix output ====
 Dimension of the reduced space:    14
 >>> TIME USED IN THIS MICRO ITERATION        0.13


 REDUCED EIGENVALUES real part:

               Column   1
       1       0.75472040
       2       0.78923736
    ==== End of matrix output ====
  
 ROOT:  1 RESIDUAL TOT: 1.74949D-01
 ROOT:  2 RESIDUAL TOT: 2.05567D-01
      7       2         0.00     0.21E+00

 Lowest eigenvalues in this iteration: 

               Column   1
       1       0.75472040
       2       0.78923736
    ==== End of matrix output ====
 Dimension of the reduced space:    16
 >>> TIME USED IN THIS MICRO ITERATION        0.13


 REDUCED EIGENVALUES real part:

               Column   1
       1       0.71043213
       2       0.76506655
    ==== End of matrix output ====
  
 ROOT:  1 RESIDUAL TOT: 9.47564D-02
 ROOT:  2 RESIDUAL TOT: 5.57597D-02
      8       2         0.00     0.95E-01

 Lowest eigenvalues in this iteration: 

               Column   1
       1       0.71043213
       2       0.76506655
    ==== End of matrix output ====
 Dimension of the reduced space:    18
 >>> TIME USED IN THIS MICRO ITERATION        0.13


 REDUCED EIGENVALUES real part:

               Column   1
       1       0.69745092
       2       0.76342049
    ==== End of matrix output ====
  
 ROOT:  1 RESIDUAL TOT: 5.06163D-02
 ROOT:  2 RESIDUAL TOT: 1.98930D-02
      9       2         0.00     0.51E-01

 Lowest eigenvalues in this iteration: 

               Column   1
       1       0.69745092
       2       0.76342049
    ==== End of matrix output ====
 Dimension of the reduced space:    20
 >>> TIME USED IN THIS MICRO ITERATION        0.13


 REDUCED EIGENVALUES real part:

               Column   1
       1       0.69644658
       2       0.76339399
    ==== End of matrix output ====
  
 ROOT:  1 RESIDUAL TOT: 3.58375D-02
 ROOT:  2 RESIDUAL TOT: 1.17047D-02
     10       2         0.00     0.36E-01

 Lowest eigenvalues in this iteration: 

               Column   1
       1       0.69644658
       2       0.76339399
    ==== End of matrix output ====
 Dimension of the reduced space:    22
 >>> TIME USED IN THIS MICRO ITERATION        0.13


 REDUCED EIGENVALUES real part:

               Column   1
       1       0.69717409
       2       0.76296649
    ==== End of matrix output ====
  
 ROOT:  1 RESIDUAL TOT: 1.86226D-02
 ROOT:  2 RESIDUAL TOT: 8.33433D-03
     11       2         0.00     0.19E-01

 Lowest eigenvalues in this iteration: 

               Column   1
       1       0.69717409
       2       0.76296649
    ==== End of matrix output ====
 Dimension of the reduced space:    24
 >>> TIME USED IN THIS MICRO ITERATION        0.13


 REDUCED EIGENVALUES real part:

               Column   1
       1       0.69693887
       2       0.76280994
    ==== End of matrix output ====
  
 ROOT:  1 RESIDUAL TOT: 6.22480D-03
 ROOT:  2 RESIDUAL TOT: 3.27911D-03
     12       2         0.00     0.62E-02

 Lowest eigenvalues in this iteration: 

               Column   1
       1       0.69693887
       2       0.76280994
    ==== End of matrix output ====
 Dimension of the reduced space:    26
 >>> TIME USED IN THIS MICRO ITERATION        0.13


 REDUCED EIGENVALUES real part:

               Column   1
       1       0.69687716
       2       0.76277659
    ==== End of matrix output ====
  
 ROOT:  1 RESIDUAL TOT: 1.79604D-03
 ROOT:  2 RESIDUAL TOT: 1.07903D-03
     13       2         0.00     0.18E-02

 Lowest eigenvalues in this iteration: 

               Column   1
       1       0.69687716
       2       0.76277659
    ==== End of matrix output ====
 Dimension of the reduced space:    28
 >>> TIME USED IN THIS MICRO ITERATION        0.13


 REDUCED EIGENVALUES real part:

               Column   1
       1       0.69678980
       2       0.76277858
    ==== End of matrix output ====
  
 ROOT:  1 RESIDUAL TOT: 5.78941D-04
 ROOT:  2 RESIDUAL TOT: 4.06424D-04
     14       2         0.00     0.58E-03

 Lowest eigenvalues in this iteration: 

               Column   1
       1       0.69678980
       2       0.76277858
    ==== End of matrix output ====
 Dimension of the reduced space:    30
 >>> TIME USED IN THIS MICRO ITERATION        0.13


 REDUCED EIGENVALUES real part:

               Column   1
       1       0.69676262
       2       0.76278327
    ==== End of matrix output ====
  
 ROOT:  1 RESIDUAL TOT: 1.96783D-04
 ROOT:  2 RESIDUAL TOT: 1.68493D-04
     15       2         0.00     0.20E-03

 Lowest eigenvalues in this iteration: 

               Column   1
       1       0.69676262
       2       0.76278327
    ==== End of matrix output ====
 Dimension of the reduced space:    32
 >>> TIME USED IN THIS MICRO ITERATION        0.13


 REDUCED EIGENVALUES real part:

               Column   1
       1       0.69675636
       2       0.76278181
    ==== End of matrix output ====
  
 ROOT:  1 RESIDUAL TOT: 6.38730D-05
 ROOT:  1 HAS CONVERGED. RESIDUAL TOT: 6.38730D-05
 ROOT:  2 RESIDUAL TOT: 6.11023D-05
 ROOT:  2 HAS CONVERGED. RESIDUAL TOT: 6.11023D-05
     16       2         0.00     0.64E-04

 Lowest eigenvalues in this iteration: 

               Column   1
       1       0.69675636
       2       0.76278181
    ==== End of matrix output ====
 Dimension of the reduced space:    32
 >>> TIME USED IN THIS MICRO ITERATION        0.14

    --------------------------------------
    converged in 16 iterations
    threshold:    0.10E-03


         Routine          Time (min)
         ---------------------------
         CC_TRDRV            0.03
         CCRED               0.00
         CCNEX               0.00
         ---------------------------
         Total time          0.04


 >>>> Total CPU  time used in CCEQ_SOLV:   2.11 seconds
 >>>> Total wall time used in CCEQ_SOLV:   2.46 seconds


 >>>>>>>>>>>>>>>>>>>>> <<<<<<<<<<<<<<<<<<<<<



  Final eigenvalues :
 =====================
 (convergence threshold:  1.00D-04)

    1   0.6967563552
    2   0.7627818068


 SYMMETRY CLASS NR.    1
 MULTIPLICITY          1


 CC3(R12)/B excitation energies with Omega=   0.000000
 =====================================================
 (conversion factor used: 1 au = 27.2113957 eV)

 Excitation no.       Hartree               eV 
 --------------       -------               --
         1            0.6967563552       18.9597048819
         2            0.7627818068       20.7563488142


 Total excited state energies for states of symmetry/spin    1    1
 Excitation no.       Energy (Hartree) 
 ------------------------------------- 
@@    1    1          -108.605454575474269
@@    1    2          -108.539429123832562


 Analysis of the Coupled Cluster Excitation Vector Number :  1
 -------------------------------------------------------------

          Excitation Energy :                            18.9597 eV


          CC_PRAM:Overall Contribution of the Different Components
          --------------------------------------------------------



          Single Excitation Contribution :               0.7828 %

          Double Excitation Contribution :              99.2172 %

          ||T1||/||T2||                  :               0.0888

          Norm of Total Amplitude Vector :               0.9994


 +=============================================================================+
 | symmetry|  orbital index  |   Excitation Numbers             |   Amplitude  |
 |  Index  |   a   b   i   j |      NAI      NBJ |     NAIBJ    |              |
 +=============================================================================+
 | 1   1   |   1       2     |        5          |              |   -0.016800  |
 | 1   1   |   2       2     |        6          |              |   -0.016551  |
 | 2   2   |   1       1     |        9          |              |   -0.049805  |
 | 2   2   |   2       1     |       10          |              |    0.020289  |
 | 3   3   |   1       1     |       11          |              |    0.049805  |
 | 3   3   |   2       1     |       12          |              |    0.020289  |
 | 5   5   |   1       1     |       13          |              |   -0.037933  |
 +-----------------------------------------------------------------------------+
 | 6 6 2 2 |   1   1   1   1 |       11       11 |          403 |   -0.372363  |
 | 7 7 3 3 |   1   1   1   1 |       14       14 |          442 |   -0.372363  |
 | 6 7 3 2 |   1   1   1   1 |        6        3 |          775 |   -0.782436  |
 +=============================================================================+


          Norm of Printed Amplitude Vector :             0.9473

          Printed all single excitations greater than 0.014746

          Printed all double excitations greater than 0.166013


 Analysis of the Coupled Cluster Excitation Vector Number :  2
 -------------------------------------------------------------

          Excitation Energy :                            20.7563 eV


          CC_PRAM:Overall Contribution of the Different Components
          --------------------------------------------------------



          Single Excitation Contribution :               1.8077 %

          Double Excitation Contribution :              98.1923 %

          ||T1||/||T2||                  :               0.1357

          Norm of Total Amplitude Vector :               0.9985


 +=============================================================================+
 | symmetry|  orbital index  |   Excitation Numbers             |   Amplitude  |
 |  Index  |   a   b   i   j |      NAI      NBJ |     NAIBJ    |              |
 +=============================================================================+
 | 1   1   |   1       2     |        5          |              |    0.031514  |
 | 1   1   |   2       2     |        6          |              |    0.047085  |
 | 5   5   |   1       1     |       13          |              |   -0.115972  |
 | 5   5   |   2       1     |       14          |              |   -0.028426  |
 +-----------------------------------------------------------------------------+
 | 6 6 5 5 |   1   1   1   1 |       10       10 |          208 |    0.247998  |
 | 7 7 5 5 |   1   1   1   1 |       10       10 |          286 |    0.247998  |
 | 6 6 1 1 |   1   1   2   2 |        4        4 |          557 |   -0.627213  |
 | 7 7 1 1 |   1   1   2   2 |        4        4 |          662 |   -0.627213  |
 +=============================================================================+


          Norm of Printed Amplitude Vector :             0.9629

          Printed all single excitations greater than 0.022409

          Printed all double excitations greater than 0.165153
  >> output from FNDMN3 <<
  NUMBER OF ELEMENTS OBTAINED IN FNDMN3            4
  FROM FNDMN3 : 
    PLACES OF LOWEST ELEMENTS 
     1 :     13      5      9     11
  MIN AND MAX IN SELECTED SUPSPACE    1.3687322229250576        1.4803735073326854     
 Start vector guessed from diagonal
 ... selected element no. 13
 Start vector guessed from diagonal
 ... selected element no.  5



 >>>>> COUPLED CLUSTER RESPONSE SOLVER <<<<<

    Iter  #Vectors  time (min)   residual
    --------------------------------------

 REDUCED EIGENVALUES real part:

               Column   1
       1       1.11237338
       2       1.18755983
    ==== End of matrix output ====
  
 ROOT:  1 RESIDUAL TOT: 3.74907D-01
 ROOT:  2 RESIDUAL TOT: 3.97368D-01
      1       2         0.00     0.40E+00

 Lowest eigenvalues in this iteration: 

               Column   1
       1       1.11237338
       2       1.18755983
    ==== End of matrix output ====
 Dimension of the reduced space:     4
 >>> TIME USED IN THIS MICRO ITERATION        0.13


 REDUCED EIGENVALUES real part:

               Column   1
       1       0.96730527
       2       1.04420001
    ==== End of matrix output ====
  
 ROOT:  1 RESIDUAL TOT: 1.41993D-01
 ROOT:  2 RESIDUAL TOT: 1.36083D-01
      2       2         0.00     0.14E+00

 Lowest eigenvalues in this iteration: 

               Column   1
       1       0.96730527
       2       1.04420001
    ==== End of matrix output ====
 Dimension of the reduced space:     6
 >>> TIME USED IN THIS MICRO ITERATION        0.13


 REDUCED EIGENVALUES real part:

               Column   1
       1       0.94690290
       2       1.02577391
    ==== End of matrix output ====
  
 ROOT:  1 RESIDUAL TOT: 8.17481D-02
 ROOT:  2 RESIDUAL TOT: 6.79721D-02
      3       2         0.00     0.82E-01

 Lowest eigenvalues in this iteration: 

               Column   1
       1       0.94690290
       2       1.02577391
    ==== End of matrix output ====
 Dimension of the reduced space:     8
 >>> TIME USED IN THIS MICRO ITERATION        0.14


 REDUCED EIGENVALUES real part:

               Column   1
       1       0.93890569
       2       1.02220322
    ==== End of matrix output ====
  
 ROOT:  1 RESIDUAL TOT: 5.54536D-02
 ROOT:  2 RESIDUAL TOT: 4.21336D-02
[...]

          Excitation Energy :                            10.2650 eV


          CC_PRAM:Overall Contribution of the Different Components
          --------------------------------------------------------



          Single Excitation Contribution :              98.0258 %

          Double Excitation Contribution :               1.9742 %

          ||T1||/||T2||                  :               7.0465

          Norm of Total Amplitude Vector :               0.9995


 +=============================================================================+
 | symmetry|  orbital index  |   Excitation Numbers             |   Amplitude  |
 |  Index  |   a   b   i   j |      NAI      NBJ |     NAIBJ    |              |
 +=============================================================================+
 | 6   3   |   1       1     |        6          |              |   -0.694465  |
 | 7   2   |   1       1     |        3          |              |    0.694441  |
 +-----------------------------------------------------------------------------+
 | 5 4 1 1 |   3   1   1   1 |        3        1 |            3 |    0.006169  |
 | 5 4 1 1 |   5   1   1   1 |        5        1 |            5 |    0.006171  |
 | 5 4 1 1 |   5   1   2   1 |       10        1 |           10 |    0.005510  |
 | 6 4 2 1 |   2   1   1   1 |       12        1 |           12 |    0.005512  |
 | 1 4 5 1 |   1   1   1   1 |       17        1 |           17 |    0.007232  |
 | 1 4 5 1 |   3   1   1   1 |       19        1 |           19 |    0.007234  |
 | 5 3 1 2 |   5   1   1   1 |        5        3 |           45 |   -0.010980  |
 | 5 3 1 2 |   1   1   2   1 |        6        3 |           46 |   -0.010761  |
 | 5 3 1 2 |   2   1   2   1 |        7        3 |           47 |   -0.010982  |
 | 5 3 1 2 |   3   1   2   1 |        8        3 |           48 |    0.010760  |
 | 6 3 2 2 |   1   2   1   1 |       11        4 |           71 |   -0.012489  |
 | 6 3 2 2 |   2   2   1   1 |       12        4 |           72 |   -0.008068  |
 | 6 3 2 2 |   3   2   1   1 |       13        4 |           73 |   -0.018845  |
 | 7 3 3 2 |   1   2   1   1 |       14        4 |           74 |   -0.014874  |
 | 7 3 3 2 |   2   2   1   1 |       15        4 |           75 |   -0.015202  |
 | 7 3 3 2 |   3   2   1   1 |       16        4 |           76 |    0.020922  |
 | 1 3 5 2 |   1   2   1   1 |       17        4 |           77 |   -0.013909  |
 | 1 3 5 2 |   4   2   1   1 |       20        4 |           80 |    0.015241  |
 | 5 2 1 3 |   1   1   1   1 |        1        5 |           81 |    0.005955  |
 | 5 2 1 3 |   2   1   1   1 |        2        5 |           82 |    0.013855  |
 | 5 2 1 3 |   3   1   1   1 |        3        5 |           83 |   -0.006951  |
 | 5 2 1 3 |   1   2   1   1 |        1        6 |          101 |    0.013852  |
 | 5 2 1 3 |   2   2   1   1 |        2        6 |          102 |    0.006951  |
 | 5 2 1 3 |   3   2   1   1 |        3        6 |          103 |    0.015239  |
 | 5 2 1 3 |   4   2   1   1 |        4        6 |          104 |   -0.005956  |
 | 6 2 2 3 |   2   1   1   1 |       12        5 |           92 |    0.012488  |
 | 6 2 2 3 |   3   1   1   1 |       13        5 |           93 |    0.008067  |
 | 7 2 3 3 |   1   1   1   1 |       14        5 |           94 |   -0.015199  |
 | 7 2 3 3 |   2   1   1   1 |       15        5 |           95 |   -0.020922  |
 | 7 2 3 3 |   3   1   1   1 |       16        5 |           96 |   -0.018841  |
 | 1 2 5 3 |   1   1   1   1 |       17        5 |           97 |    0.014875  |
 | 1 2 5 3 |   2   1   1   1 |       18        5 |           98 |    0.013908  |
 | 5 8 1 5 |   2   1   1   1 |        2        7 |          122 |    0.009859  |
 | 5 8 1 5 |   3   1   1   1 |        3        7 |          123 |    0.008053  |
 | 5 8 1 5 |   4   1   1   1 |        4        7 |          124 |    0.009860  |
 | 5 8 1 5 |   5   1   1   1 |        5        7 |          125 |   -0.008053  |
 | 6 3 1 1 |   1   1   1   1 |        1        1 |          141 |   -0.007796  |
 | 6 3 1 1 |   2   1   1   1 |        2        1 |          142 |    0.009377  |
 | 6 3 1 1 |   3   1   1   1 |        3        1 |          143 |    0.005435  |
 | 6 3 1 1 |   1   1   2   1 |        4        1 |          144 |   -0.010913  |
 | 6 3 1 1 |   2   1   2   1 |        5        1 |          145 |   -0.021843  |
 | 6 3 1 1 |   3   1   2   1 |        6        1 |          146 |   -0.006112  |
 | 6 3 1 1 |   3   2   1   1 |        3        2 |          157 |    0.005032  |
 | 6 3 1 1 |   3   2   2   1 |        6        2 |          160 |   -0.005031  |
 | 6 3 1 1 |   2   2   1   2 |        2        4 |          184 |    0.013760  |
 | 6 3 1 1 |   3   2   2   2 |        6        4 |          188 |   -0.005130  |
 | 5 3 2 1 |   2   1   1   1 |        8        1 |          148 |    0.021842  |
 | 5 3 2 1 |   4   1   1   1 |       10        1 |          150 |    0.010603  |
 | 5 3 2 1 |   5   1   1   1 |       11        1 |          151 |   -0.006703  |
 | 8 3 3 1 |   1   1   1   2 |       12        3 |          180 |   -0.008198  |
 | 2 3 5 1 |   1   1   1   2 |       13        3 |          181 |   -0.013760  |
 | 2 3 5 1 |   1   2   1   2 |       13        4 |          195 |   -0.004742  |
 | 2 4 5 2 |   2   1   1   1 |       14        5 |          210 |    0.006761  |
 | 6 1 1 3 |   3   1   1   1 |        3        6 |          213 |    0.004700  |
 | 6 1 1 3 |   3   2   1   1 |        3        7 |          227 |   -0.005523  |
 | 6 1 1 3 |   2   2   2   1 |        5        7 |          229 |    0.009628  |
 | 6 1 1 3 |   2   4   1   1 |        2        9 |          254 |   -0.005043  |
 | 6 1 1 3 |   2   4   2   1 |        5        9 |          257 |   -0.005734  |
 | 6 1 1 3 |   3   4   2   1 |        6        9 |          258 |    0.022300  |
 | 5 1 2 3 |   1   1   1   1 |        7        6 |          217 |    0.011569  |
 | 5 1 2 3 |   4   1   1   1 |       10        6 |          220 |   -0.011569  |
 | 5 1 2 3 |   2   2   1   1 |        8        7 |          232 |   -0.009628  |
 | 2 1 5 3 |   1   1   1   1 |       13        6 |          223 |    0.004712  |
 | 2 1 5 3 |   1   2   1   1 |       13        7 |          237 |    0.005016  |
 | 2 1 5 3 |   2   3   1   1 |       14        8 |          252 |   -0.006453  |
 | 6 7 1 5 |   1   2   1   1 |        1       11 |          281 |   -0.005734  |
 | 6 7 1 5 |   2   2   1   1 |        2       11 |          282 |    0.022299  |
 | 5 7 2 5 |   4   1   1   1 |       10       10 |          276 |   -0.006453  |
 | 5 7 2 5 |   5   2   1   1 |       11       11 |          291 |    0.005169  |
 | 8 7 3 5 |   1   1   1   1 |       12       10 |          278 |   -0.005043  |
 | 8 7 3 5 |   1   3   1   1 |       12       12 |          306 |    0.010421  |
 | 7 2 1 1 |   1   1   1   1 |        1        1 |          309 |   -0.007798  |
 | 7 2 1 1 |   2   1   1   1 |        2        1 |          310 |   -0.009377  |
 | 7 2 1 1 |   3   1   1   1 |        3        1 |          311 |    0.005433  |
 | 7 2 1 1 |   1   1   2   1 |        4        1 |          312 |    0.010911  |
 | 7 2 1 1 |   2   1   2   1 |        5        1 |          313 |    0.006111  |
 | 7 2 1 1 |   2   2   2   1 |        5        2 |          327 |   -0.005030  |
 | 7 2 1 1 |   1   2   1   2 |        1        4 |          351 |    0.013761  |
 | 7 2 1 1 |   3   2   1   2 |        3        4 |          353 |    0.013762  |
 | 7 2 1 1 |   3   2   2   2 |        6        4 |          356 |    0.005129  |
 | 8 2 2 1 |   1   1   1   1 |        7        1 |          315 |    0.021843  |
 | 8 2 2 1 |   1   2   1   1 |        7        2 |          329 |   -0.005030  |
 | 5 2 3 1 |   2   1   1   1 |        9        1 |          317 |    0.021842  |
 | 5 2 3 1 |   3   1   1   1 |       10        1 |          318 |   -0.010602  |
 | 5 2 3 1 |   4   1   1   1 |       11        1 |          319 |    0.006703  |
 | 5 2 3 1 |   5   1   1   2 |       12        3 |          348 |    0.008195  |
 | 5 2 3 1 |   5   2   1   2 |       12        4 |          362 |    0.004743  |
 | 7 1 1 2 |   3   2   2   1 |        6        6 |          384 |    0.006454  |
 | 7 1 1 2 |   1   3   1   1 |        1        7 |          393 |    0.004700  |
 | 7 1 1 2 |   1   4   1   1 |        1        8 |          407 |   -0.005523  |
 | 7 1 1 2 |   2   4   2   1 |        5        8 |          411 |   -0.009628  |
 | 8 1 2 2 |   1   2   1   1 |        7        6 |          385 |    0.005044  |
 | 8 1 2 2 |   1   3   1   1 |        7        7 |          399 |   -0.011569  |
 | 8 1 2 2 |   1   4   1   1 |        7        8 |          413 |   -0.009628  |
 | 5 1 3 2 |   3   2   1   1 |       10        6 |          388 |    0.005733  |
 | 5 1 3 2 |   5   2   1   1 |       12        6 |          390 |   -0.022301  |
 | 5 1 3 2 |   2   3   1   1 |        9        7 |          401 |   -0.011570  |
 | 5 1 3 2 |   4   3   1   1 |       11        7 |          403 |   -0.004714  |
 | 5 1 3 2 |   4   4   1   1 |       11        8 |          417 |    0.005016  |
 | 3 1 5 2 |   2   1   1   1 |       14        5 |          378 |   -0.006763  |
 | 5 4 3 3 |   5   1   1   1 |       12        9 |          432 |   -0.006453  |
 | 3 4 5 3 |   1   1   1   1 |       13        9 |          433 |   -0.005044  |
 | 7 6 1 5 |   2   1   1   1 |        2       10 |          436 |   -0.005734  |
 | 7 6 1 5 |   1   1   2   1 |        4       10 |          438 |    0.022299  |
 | 5 6 3 5 |   3   2   1   1 |       10       11 |          458 |    0.005169  |
 | 5 6 3 5 |   5   3   1   1 |       12       12 |          474 |   -0.010425  |
 | 8 1 1 1 |   1   1   1   2 |        1        5 |          513 |    0.012488  |
 | 8 1 1 1 |   1   2   1   2 |        1        6 |          522 |   -0.010890  |
 | 8 1 1 1 |   1   2   2   2 |        2        6 |          523 |    0.008185  |
 | 8 1 1 1 |   1   3   2   2 |        2        7 |          532 |    0.010569  |
 | 8 1 1 1 |   1   4   1   2 |        1        8 |          540 |    0.011092  |
 | 8 1 1 1 |   1   4   2   2 |        2        8 |          541 |   -0.006710  |
 | 7 1 2 1 |   1   1   1   2 |        3        5 |          515 |    0.010094  |
 | 7 1 2 1 |   3   1   1   2 |        5        5 |          517 |    0.008068  |
 | 7 1 2 1 |   1   2   1   2 |        3        6 |          524 |    0.007566  |
 | 7 1 2 1 |   3   2   1   2 |        5        6 |          526 |    0.013909  |
 | 7 1 2 1 |   1   3   1   2 |        3        7 |          533 |    0.012631  |
 | 7 1 2 1 |   1   4   1   2 |        3        8 |          542 |    0.008658  |
 | 6 1 3 1 |   3   1   1   2 |        8        5 |          520 |   -0.016936  |
 | 6 1 3 1 |   3   2   1   2 |        8        6 |          529 |    0.007413  |
 | 6 1 3 1 |   1   3   1   2 |        6        7 |          536 |   -0.018902  |
 | 6 1 3 1 |   3   3   1   2 |        8        7 |          538 |    0.020288  |
 | 8 2 1 2 |   1   2   1   1 |        1       10 |          558 |   -0.004871  |
 | 6 2 3 2 |   3   1   1   1 |        8        9 |          556 |    0.005108  |
 | 6 2 3 2 |   2   2   1   1 |        7       10 |          564 |    0.012488  |
 | 4 2 5 2 |   1   2   1   1 |        9       10 |          566 |   -0.010094  |
 | 8 3 1 3 |   1   1   2   1 |        2       11 |          568 |    0.008067  |
 | 8 3 1 3 |   1   2   2   1 |        2       12 |          577 |    0.013908  |
 | 7 3 2 3 |   3   1   1   1 |        5       11 |          571 |    0.010889  |
 | 7 3 2 3 |   3   2   1   1 |        5       12 |          580 |   -0.007416  |
 | 6 3 3 3 |   2   1   1   1 |        7       11 |          573 |    0.016936  |
 | 6 3 3 3 |   3   1   1   1 |        8       11 |          574 |   -0.008166  |
 | 6 3 3 3 |   3   2   1   1 |        8       12 |          583 |   -0.010570  |
 | 4 3 5 3 |   1   1   1   1 |        9       11 |          575 |   -0.007564  |
 | 4 3 5 3 |   1   2   1   1 |        9       12 |          584 |   -0.012632  |
 | 7 5 2 5 |   1   1   1   1 |        3       13 |          587 |    0.020291  |
 | 7 5 2 5 |   3   1   1   1 |        5       13 |          589 |   -0.018903  |
 | 7 5 2 5 |   1   3   1   1 |        3       15 |          605 |   -0.005108  |
 | 6 5 3 5 |   2   1   1   1 |        7       13 |          591 |   -0.011097  |
 | 6 5 3 5 |   3   1   1   1 |        8       13 |          592 |    0.006712  |
 | 6 5 3 5 |   2   3   1   1 |        7       15 |          609 |    0.004872  |
 | 4 5 5 5 |   1   1   1   1 |        9       13 |          593 |   -0.008660  |
 +=============================================================================+


          Norm of Printed Amplitude Vector :             0.9913

          Printed all single excitations greater than 0.165013

          Printed all double excitations greater than 0.004684


 *******************************************************************************

 --------------------------
 Symmetry class Nr.:     8
 Multiplicity      :     3
 --------------------------

 Length of Excitation vectors in this class is:      1333
 No Excitation Energies calculated in this symmetry class

 *******************************************************************

 Ground state energy is target 

 Ecorr =                   -109.30221093066904813895

 *******************************************************************
  

 *******************************************************************************
 *******************************************************************************
 *                                                                             *
 *                                                                             *
 *                   SUMMARY OF COUPLED CLUSTER CALCULATION                    *
 *                                                                             *
 *                                                                             *
 *******************************************************************************
 *******************************************************************************

                                                                                
                                                                                
            Total SCF   energy:                  -108.9541307667                
            Total MP2-R12/B energy:              -109.2968962456                
            Total CC3(R12)/B energy:             -109.3022109307                
                                                                                
                                                                                
 +=============================================================================+
 |  sym. | Exci.  |        CC3(R12)/B Excitation energies            | ||T1||  |
 |(spin, |        +------------------------------------------------------------+
 | spat) |        |     Hartree    |       eV.      |     cm-1       |    %    |
 +=============================================================================+
 | ^1Ag  |    1   |     0.6847463  |      18.63289  |    150284.442  |   0.72  |
 | ^1Ag  |    2   |     0.7458765  |      20.29633  |    163700.973  |   1.40  |
 +-----------------------------------------------------------------------------+
 | ^1B3u |    1   |     0.5062212  |      13.77498  |    111102.704  |  77.85  |
 | ^1B3u |    2   |     0.7409098  |      20.16118  |    162610.901  |  13.44  |
 +-----------------------------------------------------------------------------+
 | ^1B2u |    1   |     0.5062212  |      13.77498  |    111102.704  |  77.85  |
 | ^1B2u |    2   |     0.7409098  |      20.16118  |    162610.901  |  13.44  |
 +-----------------------------------------------------------------------------+
 | ^1B1g |    1   |     0.7195000  |      19.57859  |    157911.987  |   0.19  |
 | ^1B1g |    2   |     0.8297522  |      22.57871  |    182109.560  |   0.01  |
 +-----------------------------------------------------------------------------+
 | ^1B1u |    1   |     0.3906376  |      10.62979  |     85735.046  |  96.57  |
 | ^1B1u |    2   |     0.5936590  |      16.15428  |    130293.098  |  96.95  |
 +-----------------------------------------------------------------------------+
 | ^1B2g |    1   |     0.3522524  |       9.58528  |     77310.474  |  93.19  |
 | ^1B2g |    2   |     0.8455157  |      23.00765  |    185569.240  |  50.27  |
 +-----------------------------------------------------------------------------+
 | ^1B3g |    1   |     0.3522524  |       9.58528  |     77310.474  |  93.19  |
 | ^1B3g |    2   |     0.8455157  |      23.00765  |    185569.240  |  50.27  |
 +-----------------------------------------------------------------------------+
 | ^1Au  |    1   |     0.3772311  |      10.26498  |     82792.663  |  98.03  |
 | ^1Au  |    2   |     0.3906382  |      10.62981  |     85735.169  |  96.57  |
 +=============================================================================+
                                                                                
                                                                                
     Total energies in Hartree:                                                 
             1 ^1Ag      -108.6174646230                                        
             2 ^1Ag      -108.5563344091                                        
             1 ^1B3u     -108.7959897586                                        
             2 ^1B3u     -108.5613011450                                        
             1 ^1B2u     -108.7959897585                                        
             2 ^1B2u     -108.5613011450                                        
             1 ^1B1g     -108.5827109730                                        
             2 ^1B1g     -108.4724587168                                        
             1 ^1B1u     -108.9115733163                                        
             2 ^1B1u     -108.7085518897                                        
             1 ^1B2g     -108.9499584914                                        
             2 ^1B2g     -108.4566952530                                        
             1 ^1B3g     -108.9499584914                                        
             2 ^1B3g     -108.4566952530                                        
             1 ^1Au      -108.9249797966                                        
             2 ^1Au      -108.9115727559                                        

  1 a.u. =        27.21138 eV.  
  1 a.u. =    219474.62934 cm-1.
  

 *******************************************************************************
 *******************************************************************************
 *                                                                             *
 *                                                                             *
 *                      END OF COUPLED CLUSTER CALCULATION                     *
 *                                                                             *
 *                                                                             *
 *******************************************************************************
 *******************************************************************************


 >>>> CPU and wall time for CC :      90.040     104.185

 
     Date and time (Linux)  : Mon Mar  9 09:47:40 2015
     Host name              : foeroyar                                


                      .-------------------------------------.
                      | End of Coupled Cluster Section (CC) |
                      `-------------------------------------'

 >>>> Total CPU  time used in DALTON:  1 minute  31 seconds
 >>>> Total wall time used in DALTON:  1 minute  45 seconds

 
     Date and time (Linux)  : Mon Mar  9 09:47:40 2015
     Host name              : foeroyar                                
