

     ************************************************************************
     *************** Dalton - An Electronic Structure Program ***************
     ************************************************************************

    This is output from DALTON (Release Dalton2013 patch 0)
   ----------------------------------------------------------------------------
    NOTE:
     
    Dalton is an experimental code for the evaluation of molecular
    properties using (MC)SCF, DFT, CI, and CC wave functions.
    The authors accept no responsibility for the performance of
    the code or for the correctness of the results.
     
    The code (in whole or part) is provided under a licence and
    is not to be reproduced for further distribution without
    the written permission of the authors or their representatives.
     
    See the home page "http://daltonprogram.org" for further information.
     
    If results obtained with this code are published,
    the appropriate citations would be both of:
     
       K. Aidas, C. Angeli, K. L. Bak, V. Bakken, R. Bast,
       L. Boman, O. Christiansen, R. Cimiraglia, S. Coriani,
       P. Dahle, E. K. Dalskov, U. Ekstroem, T. Enevoldsen,
       J. J. Eriksen, P. Ettenhuber, B. Fernandez, L. Ferrighi,
       H. Fliegl, L. Frediani, K. Hald, A. Halkier, C. Haettig,
       H. Heiberg, T. Helgaker, A. C. Hennum, H. Hettema,
       E. Hjertenaes, S. Hoest, I.-M. Hoeyvik, M. F. Iozzi,
       B. Jansik, H. J. Aa. Jensen, D. Jonsson, P. Joergensen,
       J. Kauczor, S. Kirpekar, T. Kjaergaard, W. Klopper,
       S. Knecht, R. Kobayashi, H. Koch, J. Kongsted, A. Krapp,
       K. Kristensen, A. Ligabue, O. B. Lutnaes, J. I. Melo,
       K. V. Mikkelsen, R. H. Myhre, C. Neiss, C. B. Nielsen,
       P. Norman, J. Olsen, J. M. H. Olsen, A. Osted,
       M. J. Packer, F. Pawlowski, T. B. Pedersen, P. F. Provasi,
       S. Reine, Z. Rinkevicius, T. A. Ruden, K. Ruud, V. Rybkin,
       P. Salek, C. C. M. Samson, A. Sanchez de Meras, T. Saue,
       S. P. A. Sauer, B. Schimmelpfennig, K. Sneskov,
       A. H. Steindal, K. O. Sylvester-Hvid, P. R. Taylor,
       A. M. Teale, E. I. Tellgren, D. P. Tew, A. J. Thorvaldsen,
       L. Thoegersen, O. Vahtras, M. A. Watson, D. J. D. Wilson,
       M. Ziolkowski and H. Agren.
       The Dalton quantum chemistry program system.
       WIREs Comput. Mol. Sci. 2013. doi: 10.1002/wcms.1172
    
    and
    
       Dalton, a Molecular Electronic Structure Program,
       Release DALTON2013.0 (2013), see http://daltonprogram.org
   ----------------------------------------------------------------------------

    Authors in alphabetical order (major contribution(s) in parenthesis):

  Kestutis Aidas,           Vilnius University,           Lithuania   (QM/MM)
  Celestino Angeli,         University of Ferrara,        Italy       (NEVPT2)
  Keld L. Bak,              UNI-C,                        Denmark     (AOSOPPA, non-adiabatic coupling, magnetic properties)
  Vebjoern Bakken,          University of Oslo,           Norway      (DALTON; geometry optimizer, symmetry detection)
  Radovan Bast,             KTH Stockholm                 Sweden      (DALTON installation and execution frameworks)
  Linus Boman,              NTNU,                         Norway      (Cholesky decomposition and subsystems)
  Ove Christiansen,         Aarhus University,            Denmark     (CC module)
  Renzo Cimiraglia,         University of Ferrara,        Italy       (NEVPT2)
  Sonia Coriani,            University of Trieste,        Italy       (CC module, MCD in RESPONS)
  Paal Dahle,               University of Oslo,           Norway      (Parallelization)
  Erik K. Dalskov,          UNI-C,                        Denmark     (SOPPA)
  Thomas Enevoldsen,        Univ. of Southern Denmark,    Denmark     (SOPPA)
  Janus J. Eriksen,         Aarhus University,            Denmark     (PE-MP2/SOPPA, TDA)
  Berta Fernandez,          U. of Santiago de Compostela, Spain       (doublet spin, ESR in RESPONS)
  Lara Ferrighi,            Aarhus University,            Denmark     (PCM Cubic response)
  Heike Fliegl,             University of Oslo,           Norway      (CCSD(R12))
  Luca Frediani,            UiT The Arctic U. of Norway,  Norway      (PCM)
  Bin Gao,                  UiT The Arctic U. of Norway,  Norway      (Gen1Int library)
  Christof Haettig,         Ruhr-University Bochum,       Germany     (CC module)
  Kasper Hald,              Aarhus University,            Denmark     (CC module)
  Asger Halkier,            Aarhus University,            Denmark     (CC module)
  Hanne Heiberg,            University of Oslo,           Norway      (geometry analysis, selected one-electron integrals)
  Trygve Helgaker,          University of Oslo,           Norway      (DALTON; ABACUS, ERI, DFT modules, London, and much more)
  Alf Christian Hennum,     University of Oslo,           Norway      (Parity violation)
  Hinne Hettema,            University of Auckland,       New Zealand (quadratic response in RESPONS; SIRIUS supersymmetry)
  Eirik Hjertenaes,         NTNU,                         Norway      (Cholesky decomposition)
  Maria Francesca Iozzi,    University of Oslo,           Norway      (RPA)
  Brano Jansik              Technical Univ. of Ostrava    Czech Rep.  (DFT cubic response)
  Hans Joergen Aa. Jensen,  Univ. of Southern Denmark,    Denmark     (DALTON; SIRIUS, RESPONS, ABACUS modules, London, and much more)
  Dan Jonsson,              UiT The Arctic U. of Norway,  Norway      (cubic response in RESPONS module)
  Poul Joergensen,          Aarhus University,            Denmark     (RESPONS, ABACUS, and CC modules)
  Joanna Kauczor,           Linkoeping University,        Sweden      (Complex polarization propagator (CPP) module)
  Sheela Kirpekar,          Univ. of Southern Denmark,    Denmark     (Mass-velocity & Darwin integrals)
  Wim Klopper,              KIT Karlsruhe,                Germany     (R12 code in CC, SIRIUS, and ABACUS modules)
  Stefan Knecht,            ETH Zurich,                   Switzerland (Parallel CI and MCSCF)
  Rika Kobayashi,           Australian National Univ.,    Australia   (DIIS in CC, London in MCSCF)
  Henrik Koch,              NTNU,                         Norway      (CC module, Cholesky decomposition)
  Jacob Kongsted,           Univ. of Southern Denmark,    Denmark     (Polarizable embedding, QM/MM)
  Andrea Ligabue,           University of Modena,         Italy       (CTOCD, AOSOPPA)
  Ola B. Lutnaes,           University of Oslo,           Norway      (DFT Hessian)
  Juan I. Melo,             University of Buenos Aires,   Argentina   (LRESC, Relativistic Effects on NMR Shieldings)
  Kurt V. Mikkelsen,        University of Copenhagen,     Denmark     (MC-SCRF and QM/MM)
  Rolf H. Myhre,            NTNU,                         Norway      (Cholesky, subsystems and ECC2)
  Christian Neiss,          Univ. Erlangen-Nuernberg,     Germany     (CCSD(R12))
  Christian B. Nielsen,     University of Copenhagen,     Denmark     (QM/MM)
  Patrick Norman,           Linkoeping University,        Sweden      (Cubic response and complex response in RESPONS)
  Jeppe Olsen,              Aarhus University,            Denmark     (SIRIUS CI/density modules)
  Jogvan Magnus H. Olsen,   Univ. of Southern Denmark,    Denmark     (Polarizable embedding, PE library, QM/MM)
  Anders Osted,             Copenhagen University,        Denmark     (QM/MM)
  Martin J. Packer,         University of Sheffield,      UK          (SOPPA)
  Filip Pawlowski,          Kazimierz Wielki University   Poland      (CC3)
  Thomas B. Pedersen,       University of Oslo,           Norway      (Cholesky decomposition)
  Patricio F. Provasi,      University of Northeastern,   Argentina   (Analysis of coupling constants in localized orbitals)
  Zilvinas Rinkevicius,     KTH Stockholm,                Sweden      (open-shell DFT, ESR)
  Elias Rudberg,            KTH Stockholm,                Sweden      (DFT grid and basis info)
  Torgeir A. Ruden,         University of Oslo,           Norway      (Numerical derivatives in ABACUS)
  Kenneth Ruud,             UiT The Arctic U. of Norway,  Norway      (DALTON; ABACUS magnetic properties and  much more)
  Pawel Salek,              KTH Stockholm,                Sweden      (DALTON; DFT code)
  Claire C. M. Samson       University of Karlsruhe       Germany     (Boys localization, r12 integrals in ERI)
  Alfredo Sanchez de Meras, University of Valencia,       Spain       (CC module, Cholesky decomposition)
  Trond Saue,               Paul Sabatier University,     France      (direct Fock matrix construction)
  Stephan P. A. Sauer,      University of Copenhagen,     Denmark     (SOPPA(CCSD), SOPPA prop., AOSOPPA, vibrational g-factors)
  Bernd Schimmelpfennig,    Forschungszentrum Karlsruhe,  Germany     (AMFI module)
  Kristian Sneskov,         Aarhus University,            Denmark     (QM/MM, PE-CC)
  Arnfinn H. Steindal,      UiT The Arctic U. of Norway,  Norway      (parallel QM/MM)
  K. O. Sylvester-Hvid,     University of Copenhagen,     Denmark     (MC-SCRF)
  Peter R. Taylor,          VLSCI/Univ. of Melbourne,     Australia   (Symmetry handling ABACUS, integral transformation)
  Andrew M. Teale,          University of Nottingham,     England     (DFT-AC, DFT-D)
  David P. Tew,             University of Bristol,        England     (CCSD(R12))
  Olav Vahtras,             KTH Stockholm,                Sweden      (triplet response, spin-orbit, ESR, TDDFT, open-shell DFT)
  David J. Wilson,          La Trobe University,          Australia   (DFT Hessian and DFT magnetizabilities)
  Hans Agren,               KTH Stockholm,                Sweden      (SIRIUS module, RESPONS, MC-SCRF solvation model)
 --------------------------------------------------------------------------------

     Date and time (Linux)  : Sun Sep  8 20:47:51 2013
     Host name              : lpqlx131.ups-tlse.fr                    

 * Work memory size             :    64000000 =  488.28 megabytes.

 * Directories for basis set searches:
   1) /home/bast/DALTON-2013.0-Source/build/test_geoopt_dckerr
   2) /home/bast/DALTON-2013.0-Source/build/basis


Compilation information
-----------------------

 Who compiled             | bast
 Host                     | lpqlx131.ups-tlse.fr
 System                   | Linux-3.8.5-201.fc18.x86_64
 CMake generator          | Unix Makefiles
 Processor                | x86_64
 64-bit integers          | OFF
 MPI                      | OFF
 Fortran compiler         | /usr/bin/gfortran
 Fortran compiler version | GNU Fortran (GCC) 4.7.2 20121109 (Red Hat 4.7.2-8)
 C compiler               | /usr/bin/gcc
 C compiler version       | gcc (GCC) 4.7.2 20121109 (Red Hat 4.7.2-8)
 C++ compiler             | /usr/bin/g++
 C++ compiler version     | g++ (GCC) 4.7.2 20121109 (Red Hat 4.7.2-8)
 Static linking           | OFF
 Last Git revision        | f34203295a86316e27f9e7b44f9b6769c4a046c0
 Configuration time       | 2013-09-08 20:31:27.952056


   Content of the .dal input file
 ----------------------------------

**DALTON INPUT                                    
.OPTIMIZE                                         
**WAVE FUNCTIONS                                  
.HF                                               
.MP2                                              
.MCSCF                                            
.NSYM                                             
 4                                                
*SCF INPUT                                        
.DOUBLY OCCUPIED                                  
 6 4 1 1                                          
*CONFIGURATION INPUT                              
.SYMMETRY                                         
 1                                                
.SPIN MUL                                         
 1                                                
.INACTIVE                                         
 4 2 0 0                                          
.ELECTRONS                                        
 12                                               
.RAS1 SPACE                                       
 2 2 1 0                                          
.RAS1 HOLES                                       
 0 2                                              
.RAS2 SPACE                                       
 0 0 1 1                                          
.RAS3 SPACE                                       
 1 1 0 0                                          
.RAS3 ELECTRONS                                   
 0 2                                              
**RESPONSE                                        
*CUBIC                                            
.DC-KER                                           
.FREQUE                                           
 2                                                
 0.0 0.0592                                       
.APROP                                            
ZDIPLEN                                           
.BPROP                                            
ZDIPLEN                                           
.CPROP                                            
ZDIPLEN                                           
.DPROP                                            
ZDIPLEN                                           
**END OF DALTON INPUT                             


   Content of the .mol file
 ----------------------------

BASIS                                                                          
aug-cc-pVDZ                                                                    
Geometry optimization, calculation of DC-Kerr effect                           
at the optimized geometry                                                      
Atomtypes=1 Generators=2  Y  Z                                                 
Charge=8.0 Atoms=2                                                             
OS         .0000000000        0.0000000000         .0000000000             *   
OP        1.2634502500        2.0449019100         .0000000000             *   


       *******************************************************************
       *********** Output from DALTON general input processing ***********
       *******************************************************************

 --------------------------------------------------------------------------------
   Overall default print level:    0
   Print level for DALTON.STAT:    1

    "Old" integral transformation used (limited to max 255 basis functions)
 --------------------------------------------------------------------------------


 Chosen parameters for *OPTIMI :
 -------------------------------

 Default 1st order method will be used:   BFGS update.
 Optimization will be performed in redundant internal coordinates.
 Model Hessian will be used as initial Hessian.
 The model Hessian parameters of Roland Lindh will be used.


 Trust region method will be used to control step (default).



              >>>>>>>>>>>>>>>>>>>>>>>>>>>>>>>>>>>>>>>>>>>>>>>>>>>>>
              >>>>>>>>>> 1st Order Geometry Optimization >>>>>>>>>>
              >>>>>>>>>>>>>>>>>>>>>>>>>>>>>>>>>>>>>>>>>>>>>>>>>>>>>

 Reading .mol file to determine number of atoms for parallel runs.


   ****************************************************************************
   *************** Output of molecule and basis set information ***************
   ****************************************************************************


    The two title cards from your ".mol" input:
    ------------------------------------------------------------------------
 1: Geometry optimization, calculation of DC-Kerr effect                    
 2: at the optimized geometry                                               
    ------------------------------------------------------------------------

  Atomic type no.    1
  --------------------
  Nuclear charge:   8.00000
  Number of symmetry independent centers:    2
  Number of basis sets to read;    2
  Basis set file used for this atomic type with Z =   8 :
     "/home/bast/DALTON-2013.0-Source/build/basis/aug-cc-pVDZ"


                         SYMGRP: Point group information
                         -------------------------------

Point group: C2v

   * The point group was generated by:

      Reflection in the xz-plane
      Reflection in the xy-plane

   * Group multiplication table

        |  E   C2x  Oxy  Oxz
   -----+--------------------
     E  |  E   C2x  Oxy  Oxz
    C2x | C2x   E   Oxz  Oxy
    Oxy | Oxy  Oxz   E   C2x
    Oxz | Oxz  Oxy  C2x   E 

   * Character table

        |  E   C2x  Oxy  Oxz
   -----+--------------------
    A1  |   1    1    1    1
    B1  |   1   -1    1   -1
    B2  |   1   -1   -1    1
    A2  |   1    1   -1   -1

   * Direct product table

        | A1   B1   B2   A2 
   -----+--------------------
    A1  | A1   B1   B2   A2 
    B1  | B1   A1   A2   B2 
    B2  | B2   A2   A1   B1 
    A2  | A2   B2   B1   A1 


                                 Isotopic Masses
                                 ---------------

                           OS         15.994915
                           OP  _1     15.994915
                           OP  _2     15.994915

                       Total mass:    47.984745 amu
                       Natural abundance:  99.282 %

 Center-of-mass coordinates (a.u.):    0.842300    0.000000    0.000000


  Atoms and basis sets
  --------------------

  Number of atom types :    1
  Total number of atoms:    3

  Basis set used is "aug-cc-pVDZ" from the basis set library.

  label    atoms   charge   prim   cont     basis
  ----------------------------------------------------------------------
  OP          3    8.0000    35    23      [10s5p2d|4s3p2d]                                   
  ----------------------------------------------------------------------
  total:      3   24.0000   105    69
  ----------------------------------------------------------------------
  Spherical harmonic basis used.

  Threshold for neglecting AO integrals:  1.00D-12


  Cartesian Coordinates (a.u.)
  ----------------------------

  Total number of coordinates:    9
  OS      :     1  x   0.0000000000    2  y   0.0000000000    3  z   0.0000000000
  OP  / 1 :     4  x   1.2634502500    5  y   2.0449019100    6  z   0.0000000000
  OP  / 2 :     7  x   1.2634502500    8  y  -2.0449019100    9  z   0.0000000000


  Symmetry Coordinates
  --------------------

  Number of coordinates in each symmetry:     3    3    2    1

  Symmetry  A1  ( 1)

    1   OS    x    1
    2   OP    x    [  4  +    7 ]/2
    3   OP    y    [  5  -    8 ]/2

  Symmetry  B1  ( 2)

    4   OS    y    2
    5   OP    x    [  4  -    7 ]/2
    6   OP    y    [  5  +    8 ]/2

  Symmetry  B2  ( 3)

    7   OS    z    3
    8   OP    z    [  6  +    9 ]/2

  Symmetry  A2  ( 4)

    9   OP    z    [  6  -    9 ]/2


   Interatomic separations (in Angstrom):
   --------------------------------------

            OS          OP  _1      OP  _2
            ------      ------      ------
 OS    :    0.000000
 OP  _1:    1.272001    0.000000
 OP  _2:    1.272001    2.164231    0.000000


  Max    interatomic separation is    2.1642 Angstrom (    4.0898 Bohr)
  between atoms    3 and    2, "OP  _2" and "OP  _1".

  Min YX interatomic separation is    1.2720 Angstrom (    2.4037 Bohr)


  Bond distances (Angstrom):
  --------------------------

                  atom 1     atom 2       distance
                  ------     ------       --------
  bond distance:  OP  _1     OS           1.272001
  bond distance:  OP  _2     OS           1.272001


  Bond angles (degrees):
  ----------------------

                  atom 1     atom 2     atom 3         angle
                  ------     ------     ------         -----
  bond angle:     OP  _1     OS         OP  _2       116.580




 Principal moments of inertia (u*A**2) and principal axes
 --------------------------------------------------------

   IA       4.766606          0.000000    1.000000    0.000000
   IB      37.459257          1.000000    0.000000    0.000000
   IC      42.225863          0.000000    0.000000    1.000000


 Rotational constants
 --------------------

 The molecule is planar.

               A                   B                   C

         106024.9222          13491.4317          11968.4708 MHz
            3.536611            0.450026            0.399225 cm-1


@  Nuclear repulsion energy :   68.899188090779 Hartree


  Symmetry Orbitals
  -----------------

  Number of orbitals in each symmetry:          27   21   12    9


  Symmetry  A1 ( 1)

    1     OS       1s         1
    2     OS       1s         2
    3     OS       1s         3
    4     OS       1s         4
    5     OS       2px        5
    6     OS       2px        8
    7     OS       2px       11
    8     OS       3d0       16
    9     OS       3d2+      18
   10     OS       3d0       21
   11     OS       3d2+      23
   12     OP       1s        24 +   25
   13     OP       1s        26 +   27
   14     OP       1s        28 +   29
   15     OP       1s        30 +   31
   16     OP       2px       32 +   33
   17     OP       2py       34 -   35
   18     OP       2px       38 +   39
   19     OP       2py       40 -   41
   20     OP       2px       44 +   45
   21     OP       2py       46 -   47
   22     OP       3d2-      50 -   51
   23     OP       3d0       54 +   55
   24     OP       3d2+      58 +   59
   25     OP       3d2-      60 -   61
   26     OP       3d0       64 +   65
   27     OP       3d2+      68 +   69


  Symmetry  B1 ( 2)

   28     OS       2py        6
   29     OS       2py        9
   30     OS       2py       12
   31     OS       3d2-      14
   32     OS       3d2-      19
   33     OP       1s        24 -   25
   34     OP       1s        26 -   27
   35     OP       1s        28 -   29
   36     OP       1s        30 -   31
   37     OP       2px       32 -   33
   38     OP       2py       34 +   35
   39     OP       2px       38 -   39
   40     OP       2py       40 +   41
   41     OP       2px       44 -   45
   42     OP       2py       46 +   47
   43     OP       3d2-      50 +   51
   44     OP       3d0       54 -   55
   45     OP       3d2+      58 -   59
   46     OP       3d2-      60 +   61
   47     OP       3d0       64 -   65
   48     OP       3d2+      68 -   69


  Symmetry  B2 ( 3)

   49     OS       2pz        7
   50     OS       2pz       10
   51     OS       2pz       13
   52     OS       3d1+      17
   53     OS       3d1+      22
   54     OP       2pz       36 +   37
   55     OP       2pz       42 +   43
   56     OP       2pz       48 +   49
   57     OP       3d1-      52 -   53
   58     OP       3d1+      56 +   57
   59     OP       3d1-      62 -   63
   60     OP       3d1+      66 +   67


  Symmetry  A2 ( 4)

   61     OS       3d1-      15
   62     OS       3d1-      20
   63     OP       2pz       36 -   37
   64     OP       2pz       42 -   43
   65     OP       2pz       48 -   49
   66     OP       3d1-      52 +   53
   67     OP       3d1+      56 -   57
   68     OP       3d1-      62 +   63
   69     OP       3d1+      66 -   67

  Symmetries of electric field:  A1 (1)  B1 (2)  B2 (3)

  Symmetries of magnetic field:  A2 (4)  B2 (3)  B1 (2)


                     .---------------------------------------.
                     | Starting in Integral Section (HERMIT) |
                     `---------------------------------------'



    *************************************************************************
    ****************** Output from HERMIT input processing ******************
    *************************************************************************



     ************************************************************************
     ************************** Output from HERINT **************************
     ************************************************************************


 Threshold for neglecting two-electron integrals:  1.00D-12
 Number of two-electron integrals written:      672537 ( 23.1% )
 Megabytes written:                              7.702

 >>>  Time used in TWOINT     is   0.31 seconds
 >>>> Total CPU  time used in HERMIT:   0.33 seconds
 >>>> Total wall time used in HERMIT:   0.34 seconds


                        .----------------------------------.
                        | End of Integral Section (HERMIT) |
                        `----------------------------------'



                   .--------------------------------------------.
                   | Starting in Wave Function Section (SIRIUS) |
                   `--------------------------------------------'


 *** Output from Huckel module :

     Using EWMO model:          F
     Using EHT  model:          T
     Number of Huckel orbitals each symmetry:    7    5    2    1

 Huckel EHT eigenvalues for symmetry :  1
          -20.699402     -20.689226      -1.729687      -1.040767      -0.734624
           -0.537512      -0.406137

 Huckel EHT eigenvalues for symmetry :  2
          -20.691361      -1.341378      -0.690151      -0.562527      -0.368329

 Huckel EHT eigenvalues for symmetry :  3
           -0.772074      -0.484532

 Huckel EHT eigenvalues for symmetry :  4
           -0.591994

 **********************************************************************
 *SIRIUS* a direct, restricted step, second order MCSCF program       *
 **********************************************************************

 
     Date and time (Linux)  : Sun Sep  8 20:47:51 2013
     Host name              : lpqlx131.ups-tlse.fr                    

 Title lines from ".mol" input file:
     Geometry optimization, calculation of DC-Kerr effect                    
     at the optimized geometry                                               

 Print level on unit LUPRI =   2 is   0
 Print level on unit LUW4  =   2 is   5

@    MC-SCF optimization.
@              Type: restricted active space calculation (RAS)

@    This is a combination run starting with
@              a restricted, closed shell Hartree-Fock calculation
@              an MP2 calculation


 Initial molecular orbitals are obtained according to
 ".MOSTART EHT   " input option

     Wave function specification
     ============================
@    For the wave function of type :      >>> MC-SCF <<<
@    Number of closed shell electrons          12
@    Number of electrons in active shells      12
@    Total charge of the molecule               0

@    Spin multiplicity and 2 M_S                1         0
     Total number of symmetries                 4
@    Reference state symmetry                   1

Number of active orbitals in RAS1, RAS2, and RAS3 :   5   2   2

@    Minimum number of electrons in RAS1 :   8 (maximum   2 holes)
@    Maximum number of electrons in RAS1 :  10 (minimum   0 holes)

@    Minimum number of electrons in RAS3 :   0
@    Maximum number of electrons in RAS3 :   2

     Orbital specifications
     ======================
     Abelian symmetry species          All |    1    2    3    4
                                       --- |  ---  ---  ---  ---
@    Inactive orbitals                   6 |    4    2    0    0
@    Active orbitals in RAS1             5 |    2    2    1    0
@    Active orbitals in RAS2             2 |    0    0    1    1
@    Active orbitals in RAS3             2 |    1    1    0    0
@    Active orbitals                     9 |    3    3    2    1
     Secondary orbitals                 54 |   20   16   10    8
     Total number of orbitals           69 |   27   21   12    9
     Number of basis functions          69 |   27   21   12    9

      -- Initial occupation of symmetries is determined from user input.                      
      -- Initial occupation of symmetries is :
@    Occupied SCF orbitals              12 |    6    4    1    1

     Optimization information
     ========================
@    Number of configurations               128
@    Number of orbital rotations            271
     ------------------------------------------
@    Total number of variables              399

     Maximum number of macro iterations      25
     Maximum number of micro iterations     600
     Threshold for MCSCF gradient      1.00D-05
     Number of initial trial vectors          1
     Number of initial CI iterations          3
     Number of simultaneous trial vectors     1

@    This calculation converges to the lowest state for the specified symmetry and spin species.

     Maximum number of NEO/NR iterations  24


 >>>>> DIIS optimization of Hartree-Fock <<<<<

 C1-DIIS algorithm; max error vectors =   10

 Iter      Total energy        Error norm    Delta(E)  DIIS dim.
 -----------------------------------------------------------------------------
     (Precalculated two-electron integrals are transformed to P-supermatrix elements.
      Threshold for discarding integrals :  1.00D-12 )
@  1    -223.582328824        4.04374D+00   -2.24D+02    1
      Virial theorem: -V/T =      2.002837
@      MULPOP OS      1.10; OP  _1 -0.55; OP  _2 -0.55; 
 -----------------------------------------------------------------------------
@  2    -223.870441217        3.17808D+00   -2.88D-01    2
      Virial theorem: -V/T =      1.994180
@      MULPOP OS     -0.48; OP  _1  0.24; OP  _2  0.24; 
 -----------------------------------------------------------------------------
@  3    -224.276125959        5.39063D-01   -4.06D-01    3
      Virial theorem: -V/T =      2.002210
@      MULPOP OS      0.47; OP  _1 -0.24; OP  _2 -0.24; 
 -----------------------------------------------------------------------------
@  4    -224.289820916        8.05870D-02   -1.37D-02    4
      Virial theorem: -V/T =      2.002842
@      MULPOP OS      0.34; OP  _1 -0.17; OP  _2 -0.17; 
 -----------------------------------------------------------------------------
@  5    -224.290386085        2.51761D-02   -5.65D-04    5
      Virial theorem: -V/T =      2.002216
@      MULPOP OS      0.34; OP  _1 -0.17; OP  _2 -0.17; 
 -----------------------------------------------------------------------------
@  6    -224.290475206        9.25693D-03   -8.91D-05    6
      Virial theorem: -V/T =      2.002333
@      MULPOP OS      0.34; OP  _1 -0.17; OP  _2 -0.17; 
 -----------------------------------------------------------------------------
@  7    -224.290495903        3.80667D-03   -2.07D-05    7
      Virial theorem: -V/T =      2.002297
@      MULPOP OS      0.34; OP  _1 -0.17; OP  _2 -0.17; 
 -----------------------------------------------------------------------------
@  8    -224.290499746        1.50370D-03   -3.84D-06    8
      Virial theorem: -V/T =      2.002299
@      MULPOP OS      0.34; OP  _1 -0.17; OP  _2 -0.17; 
 -----------------------------------------------------------------------------
@  9    -224.290500230        2.74074D-04   -4.84D-07    9
      Virial theorem: -V/T =      2.002296
@      MULPOP OS      0.34; OP  _1 -0.17; OP  _2 -0.17; 
 -----------------------------------------------------------------------------
@ 10    -224.290500243        4.26559D-05   -1.33D-08   10
      Virial theorem: -V/T =      2.002296
@      MULPOP OS      0.34; OP  _1 -0.17; OP  _2 -0.17; 
 -----------------------------------------------------------------------------
@ 11    -224.290500244        8.04962D-06   -2.46D-10   10
      Virial theorem: -V/T =      2.002296
@      MULPOP OS      0.34; OP  _1 -0.17; OP  _2 -0.17; 
 -----------------------------------------------------------------------------
@ 12    -224.290500244        2.83044D-06   -1.14D-11   10
      Virial theorem: -V/T =      2.002296
@      MULPOP OS      0.34; OP  _1 -0.17; OP  _2 -0.17; 
 -----------------------------------------------------------------------------
@ 13    -224.290500244        4.96605D-07   -1.71D-12   10

@ *** DIIS converged in  13 iterations !
@     Converged SCF energy, gradient:   -224.290500243741    4.97D-07
    - total time used in SIRFCK :              0.00 seconds

 >>> Writing SIRIFC interface file <<<

 >>>> CPU and wall time for SCF :       0.074       0.074


 >>>>> Output from SIRIUS MP2 module <<<<<

 Reference: H.J.Aa.Jensen, P.Jorgensen, H.Agren, and J.Olsen,
            J. Chem. Phys. 88, 3834 (1988); 89, 5354 (1988)

 Checking that the closed shell orbitals are canonical Hartree-Fock orbitals

    Number of electrons  :   24
    Closed shell orbitals:    6    4    1    1

 Generating Fock matrix

 Hartree-Fock electronic energy:        -293.189688334520
 Hartree-Fock total      energy:        -224.290500243741

 Hartree-Fock orbital energies, symmetry 1, number of occupied SCF orbitals is    6

       -20.92872784   -20.72021755    -1.76281598    -1.10001908    -0.83740730
        -0.55578491     0.12913202     0.15219434     0.21645185     0.27703579
         0.33083695     0.41393541     0.86547164     1.00530952     1.10806049
         1.22559207     1.27652648     1.29806861     1.50529480     1.85423683
         2.23533299     3.20808056     3.35695742     3.48934058     3.70924134
         3.91068413     4.34994052

 Hartree-Fock orbital energies, symmetry 2, number of occupied SCF orbitals is    4

       -20.72029375    -1.44160595    -0.80567920    -0.56538615     0.12634724
         0.22629885     0.28964271     0.39158511     0.45833442     0.98680545
         1.04725242     1.21463458     1.27464439     1.41332967     1.75858145
         2.44224814     3.10080986     3.29956962     3.56030892     3.64014471
         4.29747343

 Hartree-Fock orbital energies, symmetry 3, number of occupied SCF orbitals is    1

        -0.78567811    -0.04977783     0.18223873     0.24643307     0.80989624
         1.12759269     1.20300939     1.29436718     1.72053874     3.21285721
         3.50151003     3.76725044

 Hartree-Fock orbital energies, symmetry 4, number of occupied SCF orbitals is    1

        -0.49039254     0.23554617     0.92850024     1.15092983     1.34353593
         1.64641567     3.09966296     3.55334146     3.95459747

    E(LUMO) :    -0.04977783   (in symmetry 3)
  - E(HOMO) :    -0.49039254   (in symmetry 4)
  --------------------------
    gap     :     0.44061471

 Integral transformation: Total CPU and WALL times (sec)       0.209       0.212

 MP2 move   0.472200 electrons to unoccupied HF orbitals


@   Hartree-Fock total energy   :          -224.2905002437
@   + MP2 contribution          :            -0.6734135697
@   = MP2 second order energy   :          -224.9639138135

 Natural orbital occupation numbers, symmetry 1
 Sum =    12.00677322; RHF =    12.00000000; Difference =     0.00677322

         1.99991333     1.99990802     1.98808649     1.97709354     1.96801265
         1.94204089     0.06102152     0.02355406     0.01427069     0.00785282
         0.00696048     0.00574249     0.00435979     0.00258422     0.00218373
         0.00160800     0.00045918     0.00034999     0.00028375     0.00020521
         0.00016757     0.00009470     0.00008100     0.00003691     0.00001367
        -0.00000006    -0.00011142

 Natural orbital occupation numbers, symmetry 2
 Sum =     7.97707589; RHF =     8.00000000; Difference =    -0.02292411

         1.99991313     1.98333251     1.96455253     1.92659390     0.05555409
         0.01702881     0.01015196     0.00663229     0.00471208     0.00350737
         0.00193599     0.00191767     0.00041126     0.00032463     0.00023476
         0.00018133     0.00013119     0.00005087     0.00002004     0.00000807
        -0.00011861

 Natural orbital occupation numbers, symmetry 3
 Sum =     2.12989457; RHF =     2.00000000; Difference =     0.12989457

         1.93386519     0.17118154     0.01000405     0.00567660     0.00428048
         0.00273643     0.00116772     0.00046145     0.00022651     0.00015935
         0.00012649     0.00000875

 Natural orbital occupation numbers, symmetry 4
 Sum =     1.88625632; RHF =     2.00000000; Difference =    -0.11374368

         1.86104840     0.01051553     0.00750153     0.00464138     0.00147214
         0.00042849     0.00032509     0.00020944     0.00011431

 Time used for MP2 natural orbitals :       0.238 CPU seconds,       0.241 wall seconds.

 >>>> CPU and wall time for MP2 :       0.238       0.241


        SIRIUS MCSCF optimization (SIROPT)
 ================================================



 <<<<< Output from SIRIUS CI module (CICTL) >>>>>




 Integral transformation: Total CPU and WALL times (sec)       0.052       0.053

 (CIST1)  4 lowest diagonal elements:

 Element no. Config.no.    Active energy      Total energy

         1 :          2    -38.8529768431   -224.2770316708
         2 :         34    -38.4359975244   -223.8600523521
         3 :          5    -38.3787102070   -223.8027650347
         4 :          1    -38.3543638513   -223.7784186790


 Convergence threshold for CI optimization :     0.00000500



 *** Reached maximum number of CI iterations:    3
              1 CI roots are not converged.


 CI energies and residuals:
    1     -224.494783095032602       9.25D-02


 Final CI energy:     -224.494783095032602

   <<< OUTPUT FROM SIRCNO >>>    Keyword = FD+NO 


 "Occupations" of RAS pseudo-natural orbitals:

 Norm of zeroed RAS1-RAS2 block:   2.182664D-02
 Norm of zeroed RAS1-RAS3 block:   2.544646D-02
 Norm of zeroed RAS2-RAS3 block:   0.000000D+00

 Symmetry  1

   1.993633039   1.965863103   0.049066332

 Symmetry  2

   1.994251772   1.955378543   0.040669901

 Symmetry  3

   1.964862965   0.159502878

 Symmetry  4

   1.876771466


 <<< MACRO ITERATION  1 >>>
 --------------------------

 Integral transformation: Total CPU and WALL times (sec)       0.160       0.162

 Total MCSCF energy       :          -224.494783095032574  (MACRO    1)

 - Nuclear repulsion      :            68.899188090778793
 - Inactive energy        :          -254.323242918459925
 - Active energy          :           -39.070728267351470

 Norm of total gradient   :             0.270878567259
 -    of CI gradient      :             0.185061812919
 -    of orbital gradient :             0.197806277958

 WARNING, population analysis for RAS wave functions uses pseudo-natural orbitals,
          that is, the off-diagonal elements of the one-electron density matrix which
          couple the different RAS spaces are ignored.
      Virial theorem: -V/T =      1.985931
@      MULPOP OS     -0.49; OP  _1  0.25; OP  _2  0.25; 

 Residual norm when dim(red L) =   8
 NEO root     CSF        orbital          total
    1     0.05032647     0.01243457     0.05183987 converged

 (NEONEX) NEO vector is converged.

   <<< OUTPUT FROM SIRCNO >>>    Keyword = FD+NO 


 "Occupations" of RAS pseudo-natural orbitals:

 Norm of zeroed RAS1-RAS2 block:   2.141975D-02
 Norm of zeroed RAS1-RAS3 block:   6.941881D-02
 Norm of zeroed RAS2-RAS3 block:   0.000000D+00

 Symmetry  1

   1.991431009   1.957398767   0.060158108

 Symmetry  2

   1.992804296   1.949861410   0.048644020

 Symmetry  3

   1.969041802   0.220653974

 Symmetry  4

   1.810006614


 <<< MACRO ITERATION  2 >>>
 --------------------------

 Integral transformation: Total CPU and WALL times (sec)       0.160       0.163

 Total MCSCF energy       :          -224.508883596219164  (MACRO    2)

 - Nuclear repulsion      :            68.899188090778793
 - Inactive energy        :          -253.377034187471708
 - Active energy          :           -40.031037499526242

 Norm of total gradient   :             0.095191883941
 -    of CI gradient      :             0.085404864264
 -    of orbital gradient :             0.042041692737

 WARNING, population analysis for RAS wave functions uses pseudo-natural orbitals,
          that is, the off-diagonal elements of the one-electron density matrix which
          couple the different RAS spaces are ignored.
      Virial theorem: -V/T =      1.987464
@      MULPOP OS     -0.70; OP  _1  0.35; OP  _2  0.35; 

 Residual norm when dim(red L) =  15
 NEO root     CSF        orbital          total
    1     0.01528350     0.01114508     0.01891555 converged

 (NEONEX) NEO vector is converged.

   <<< OUTPUT FROM SIRCNO >>>    Keyword = FD+NO 


 "Occupations" of RAS pseudo-natural orbitals:

 Norm of zeroed RAS1-RAS2 block:   7.948635D-02
 Norm of zeroed RAS1-RAS3 block:   9.630158D-02
 Norm of zeroed RAS2-RAS3 block:   0.000000D+00

 Symmetry  1

   1.991896440   1.960418813   0.055075237

 Symmetry  2

   1.993721322   1.955239557   0.043543268

 Symmetry  3

   1.968004077   0.256733589

 Symmetry  4

   1.775367697


 <<< MACRO ITERATION  3 >>>
 --------------------------

 Integral transformation: Total CPU and WALL times (sec)       0.162       0.164

 Total MCSCF energy       :          -224.510632951188086  (MACRO    3)

 - Nuclear repulsion      :            68.899188090778793
 - Inactive energy        :          -253.364611557391697
 - Active energy          :           -40.045209484575182

 Norm of total gradient   :             0.024011358059
 -    of CI gradient      :             0.019877697280
 -    of orbital gradient :             0.013469315748

 WARNING, population analysis for RAS wave functions uses pseudo-natural orbitals,
          that is, the off-diagonal elements of the one-electron density matrix which
          couple the different RAS spaces are ignored.
      Virial theorem: -V/T =      1.986637
@      MULPOP OS     -0.75; OP  _1  0.38; OP  _2  0.38; 

 Residual norm when dim(red L) =  24
 NEO root     CSF        orbital          total
    1     0.00095000     0.00050631     0.00107650 converged

 (NEONEX) NEO vector is converged.

   <<< OUTPUT FROM SIRCNO >>>    Keyword = FD+NO 


 "Occupations" of RAS pseudo-natural orbitals:

 Norm of zeroed RAS1-RAS2 block:   1.035908D-01
 Norm of zeroed RAS1-RAS3 block:   8.679800D-02
 Norm of zeroed RAS2-RAS3 block:   0.000000D+00

 Symmetry  1

   1.991684637   1.961282181   0.054566576

 Symmetry  2

   1.993563181   1.955675602   0.043107694

 Symmetry  3

   1.965715139   0.257298021

 Symmetry  4

   1.777106968


 <<< MACRO ITERATION  4 >>>
 --------------------------

 Integral transformation: Total CPU and WALL times (sec)       0.160       0.162

 Total MCSCF energy       :          -224.510747872452157  (MACRO    4)

 - Nuclear repulsion      :            68.899188090778793
 - Inactive energy        :          -253.422506575864873
 - Active energy          :           -39.987429387366099

 Norm of total gradient   :             0.002032557509
 -    of CI gradient      :             0.001924000789
 -    of orbital gradient :             0.000655370881

 WARNING, population analysis for RAS wave functions uses pseudo-natural orbitals,
          that is, the off-diagonal elements of the one-electron density matrix which
          couple the different RAS spaces are ignored.
      Virial theorem: -V/T =      1.986580
@      MULPOP OS     -0.74; OP  _1  0.37; OP  _2  0.37; 

 (SIRNEO) iteration (  4, 24)
 maximum number of microiterations reached

   <<< OUTPUT FROM SIRCNO >>>    Keyword = FD+NO 


 "Occupations" of RAS pseudo-natural orbitals:

 Norm of zeroed RAS1-RAS2 block:   1.042740D-01
 Norm of zeroed RAS1-RAS3 block:   8.801783D-02
 Norm of zeroed RAS2-RAS3 block:   0.000000D+00

 Symmetry  1

   1.991681125   1.961207203   0.054707494

 Symmetry  2

   1.993524073   1.955651640   0.043116814

 Symmetry  3

   1.965551955   0.257356627

 Symmetry  4

   1.777203069


 <<< MACRO ITERATION  5 >>>
 --------------------------

 Integral transformation: Total CPU and WALL times (sec)       0.160       0.163

 Total MCSCF energy       :          -224.510748512915825  (MACRO    5)

 - Nuclear repulsion      :            68.899188090778793
 - Inactive energy        :          -253.423429371236267
 - Active energy          :           -39.986507232458322

 Norm of total gradient   :             0.000075568352
 -    of CI gradient      :             0.000072153094
 -    of orbital gradient :             0.000022461231

 WARNING, population analysis for RAS wave functions uses pseudo-natural orbitals,
          that is, the off-diagonal elements of the one-electron density matrix which
          couple the different RAS spaces are ignored.
      Virial theorem: -V/T =      1.986594
@      MULPOP OS     -0.74; OP  _1  0.37; OP  _2  0.37; 

 (SIRNEO) iteration (  5, 24)
 maximum number of microiterations reached

   <<< OUTPUT FROM SIRCNO >>>    Keyword = FD+NO 


 "Occupations" of RAS pseudo-natural orbitals:

 Norm of zeroed RAS1-RAS2 block:   1.042488D-01
 Norm of zeroed RAS1-RAS3 block:   8.796643D-02
 Norm of zeroed RAS2-RAS3 block:   0.000000D+00

 Symmetry  1

   1.991686594   1.961197722   0.054708788

 Symmetry  2

   1.993530686   1.955655192   0.043108694

 Symmetry  3

   1.965556341   0.257324842

 Symmetry  4

   1.777231142


 <<< MACRO ITERATION  6 >>>
 --------------------------

 Integral transformation: Total CPU and WALL times (sec)       0.163       0.165

 Total MCSCF energy       :          -224.510748516307331  (MACRO    6)

 - Nuclear repulsion      :            68.899188090778793
 - Inactive energy        :          -253.423464259226876
 - Active energy          :           -39.986472347859277

 Norm of total gradient   :             0.000015748655
 -    of CI gradient      :             0.000011604054
 -    of orbital gradient :             0.000010647349

 WARNING, population analysis for RAS wave functions uses pseudo-natural orbitals,
          that is, the off-diagonal elements of the one-electron density matrix which
          couple the different RAS spaces are ignored.
      Virial theorem: -V/T =      1.986596
@      MULPOP OS     -0.74; OP  _1  0.37; OP  _2  0.37; 

 (SIRSTP) Close to convergence, ratio set to one.
 Energy difference; actual and predicted:   -3.39151D-09   -3.39006D-09

 (SIRSTP) Close to convergence, ratio set to one.
 Energy difference; actual and predicted:    1.00043D+00
 Close to convergence, ratio set to one.

 Residual norm when dim(red L) =   4
 NEO root     CSF        orbital          total
    1     0.00000592     0.00000221     0.00000631 converged

 (NEONEX) NEO vector is converged.

   <<< OUTPUT FROM SIRCNO >>>    Keyword = FD+NO 


 "Occupations" of RAS pseudo-natural orbitals:

 Norm of zeroed RAS1-RAS2 block:   1.042493D-01
 Norm of zeroed RAS1-RAS3 block:   8.796681D-02
 Norm of zeroed RAS2-RAS3 block:   0.000000D+00

 Symmetry  1

   1.991686463   1.961197589   0.054709109

 Symmetry  2

   1.993530594   1.955655088   0.043108830

 Symmetry  3

   1.965556243   0.257324556

 Symmetry  4

   1.777231527


 <<< MACRO ITERATION  7 >>>
 --------------------------

 Integral transformation: Total CPU and WALL times (sec)       0.160       0.161

 Total MCSCF energy       :          -224.510748516330921  (MACRO    7)

 - Nuclear repulsion      :            68.899188090778793
 - Inactive energy        :          -253.423475545512474
 - Active energy          :           -39.986461061597254

 Norm of total gradient   :             0.000006314226
 -    of CI gradient      :             0.000005916107
 -    of orbital gradient :             0.000002206611

 WARNING, population analysis for RAS wave functions uses pseudo-natural orbitals,
          that is, the off-diagonal elements of the one-electron density matrix which
          couple the different RAS spaces are ignored.
      Virial theorem: -V/T =      1.986596
@      MULPOP OS     -0.74; OP  _1  0.37; OP  _2  0.37; 

 (SIRSTP) Close to convergence, ratio set to one.
 Energy difference; actual and predicted:   -2.35900D-11   -2.49355D-11

 (SIRSTP) Close to convergence, ratio set to one.
 Energy difference; actual and predicted:    9.46040D-01
 Close to convergence, ratio set to one.

 *** Optimization control: MCSCF converged ***
     Number of macro iterations used            7
     Number of micro iterations used           91
     Total number of CPU seconds used         2.75

 Integral transformation: Total CPU and WALL times (sec)       0.187       0.190

 >>>> CPU and wall time for MCSCF :       2.936       2.973


                     .----------------------------------------.
                     | >>> SIRIUS OPTIMIZATION STATISTICS <<< |
                     `----------------------------------------'


 
     Date and time (Linux)  : Sun Sep  8 20:47:55 2013
     Host name              : lpqlx131.ups-tlse.fr                    


  ITER ITMIC     EMCSCF           GRDNRM        RATIO      STPLNG
 ---------------------------------------------------------------------
    1    6   -224.494783095033   0.2708785673  0.000000   0.4495547970
    2   13   -224.508883596219   0.0951918839  0.913791   0.1305438795
    3   22   -224.510632951188   0.0240113581  0.977019   0.0439066577
    4   24   -224.510747872452   0.0020325575  1.000772   0.0018160590
    5   24   -224.510748512916   0.0000755684  1.000373   0.0002760775
    6    2   -224.510748516307   0.0000157487  1.000000   0.0000089304
    7    0   -224.510748516331   0.0000063142  1.000000   0.0000000000


  ITER  INDGCM  GCIMAX      GCINRM     INDGOM  GOBMAX      GOBNRM      GRDNRM
 ------------------------------------------------------------------------------
    1     80   -0.058117    0.185062    221   -0.079417    0.197806    0.270879
    2     17   -0.029099    0.085405      9    0.018643    0.042042    0.095192
    3     31    0.006881    0.019878     12   -0.004962    0.013469    0.024011
    4     87   -0.000973    0.001924      6   -0.000276    0.000655    0.002033
    5    106   -0.000018    0.000072      3   -0.000013    0.000022    0.000076
    6    101    0.000003    0.000012      3   -0.000005    0.000011    0.000016
    7    108    0.000002    0.000006     94   -0.000001    0.000002    0.000006


  ITER ITMIC NCLIN NOLIN   TIMMAC    TIMITR    TIMMIC    TIMLIN    TIMMIC/ITMIC
 ------------------------------------------------------------------------------

    1     6     3     4      0.29      0.16      0.12      0.11      0.02
    2    13     8     6      0.38      0.16      0.21      0.20      0.02
    3    22    13    10      0.52      0.16      0.35      0.33      0.02
    4    24    14    11      0.55      0.16      0.38      0.36      0.02
    5    24    14    11      0.55      0.16      0.38      0.36      0.02
    6     2     1     2      0.23      0.16      0.06      0.05      0.03
    7     0     0     0      0.17      0.16      0.00      0.00


 ITER         EMY                 EACTIV              EMCSCF

    1   -254.323242918460    -39.070728267351   -224.494783095033
    2   -253.377034187472    -40.031037499526   -224.508883596219
    3   -253.364611557392    -40.045209484575   -224.510632951188
    4   -253.422506575865    -39.987429387366   -224.510747872452
    5   -253.423429371236    -39.986507232458   -224.510748512916
    6   -253.423464259227    -39.986472347859   -224.510748516307
    7   -253.423475545512    -39.986461061597   -224.510748516331


 ITER         DEPRED              DEACT               RATIO

    1      0.000000000000      0.000000000000      0.000000000000
    2     -0.015430780373     -0.014100501187      0.913790543679
    3     -0.001790501713     -0.001749354969      0.977019433460
    4     -0.000114832590     -0.000114921264      1.000772198900
    5     -0.000000640225     -0.000000640464      1.000373023693
    6     -0.000000003390     -0.000000003392      1.000000000000
    7     -0.000000000025     -0.000000000024      1.000000000000


 ITER    BETA           GAMMA             STPLNG              RTRUST

    1      0.20000000  1.00000000      0.449554797034      0.700000000000
    2      0.20000000  1.00000000      0.130543879538      0.700000000000
    3      0.20000000  1.00000000      0.043906657664      0.700000000000
    4      0.20000000  1.00000000      0.001816059024      0.700000000000
    5      0.20000000  1.00000000      0.000276077522      0.700000000000
    6      0.20000000  1.00000000      0.000008930446      0.700000000000
    7      0.00000000  0.00000000      0.000000000000      0.700000000000


 Reduced L root no.  1
 ITER         EVAL              EVEC(1)           EVEC(2)           EVEC(3)
 ----------------------------------------------------------------------------
    1   -0.001224563086    0.995982352285   -0.016057948369   -0.083918123049
    2   -0.000143142561    0.999659340063   -0.007385831625   -0.013208254137
    3   -0.000009185899    0.999961446338   -0.001703305460   -0.005100145377
    4   -0.000000051218    0.999999934039   -0.000113249346   -0.000103011656
    5   -0.000000000271    0.999999998476   -0.000020909119   -0.000004483453
    6   -0.000000000002    0.999999999998   -0.000000563521   -0.000001641499
    7    0.000000000000    0.000000000000    0.000000000000    0.000000000000


                       .-----------------------------------.
                       | >>> Final results from SIRIUS <<< |
                       `-----------------------------------'


@    Spin multiplicity:           1
@    Spatial symmetry:            1
@    Total charge of molecule:    0
@    State number:                1

@    Final MCSCF energy:         -224.510748516331                 
@    Nuclear repulsion:            68.899188090779
@    Electronic energy:          -293.409936607110

@    Final gradient norm:           0.000006314226

 
     Date and time (Linux)  : Sun Sep  8 20:47:55 2013
     Host name              : lpqlx131.ups-tlse.fr                    

 Occupancies of natural orbitals
 -------------------------------

 Symmetry  1 -- Total occupation in this symmetry is  12.007593162

   2.000000000   2.000000000   2.000000000   2.000000000   1.992778066
   1.963308517   0.051506580

 Symmetry  2 -- Total occupation in this symmetry is   7.992294512

   2.000000000   2.000000000   1.994295999   1.955706250   0.042292264

 Symmetry  3 -- Total occupation in this symmetry is   2.222880800

   1.971894810   0.250985990

 Symmetry  4 -- Total occupation in this symmetry is   1.777231527

   1.777231527

  >>> NOTE THAT THE OCCUPATION NUMBERS ARE FOR ANALYSIS PURPOSE ONLY
  >>> The orbital coefficients have NOT been transformed
  >>> to ordered natural orbitals.

 (Only coefficients >0.0100 are printed.)

 Molecular orbitals for symmetry species  1
 ------------------------------------------

    Orbital         3        4        5        6        7        8        9
   1 OS  :1s    -0.0020   0.0041   0.0046  -0.0000  -0.0703   0.0059   0.0158
   2 OS  :1s     0.5671   0.5877   0.5117  -0.2036  -0.7431  -0.0744  -0.0302
   3 OS  :1s    -0.0743   0.1127   0.1025   0.1238  -0.0268  -0.2632  -0.3551
   4 OS  :1s    -0.0742   0.0477   0.1464   0.0716  -0.2266  -8.1000   2.6832
   5 OS  :2px   -0.1818  -0.3498  -0.0194  -0.8132  -0.8172   0.1250   0.0854
   6 OS  :2px   -0.0191   0.0704   0.0362   0.0328   0.2153  -0.2066   0.0401
   7 OS  :2px   -0.0273   0.0048  -0.0045   0.0017  -0.0229  -2.5239  -0.4398
   8 OS  :3d0   -0.0068   0.0046   0.0019   0.0203  -0.0084  -0.0057  -0.0005
   9 OS  :3d2+  -0.0114  -0.0139   0.0214   0.0068  -0.0410   0.0108   0.0068
  10 OS  :3d0    0.0009  -0.0082  -0.0077   0.0191   0.0027   0.0986   0.0088
  11 OS  :3d2+  -0.0116  -0.0341   0.0296  -0.0175  -0.0026   0.0300  -0.0384
  13 OP  :1s     0.5286  -0.3938  -0.2037  -0.0305   0.2428  -0.0419  -0.1083
  14 OP  :1s    -0.0220  -0.0658  -0.0843   0.0905   0.0864   0.1357  -0.2000
  15 OP  :1s     0.0533  -0.0360  -0.0647   0.0073   0.1050   4.2097  -0.4161
  16 OP  :2px   -0.0293  -0.3211   0.4536   0.3598  -0.2417   0.0532  -0.0800
  17 OP  :2py    0.0731   0.0620  -0.3557   0.2459  -0.7407  -0.0008  -0.0652
  18 OP  :2px    0.0169   0.0525   0.0187   0.0105  -0.0210  -0.0621  -0.0520
  19 OP  :2py   -0.0004   0.0367   0.0664  -0.0687   0.1182  -0.2378  -0.1074
  20 OP  :2px    0.0008  -0.0077   0.0367   0.0158  -0.0222  -0.6780   0.7652
  21 OP  :2py   -0.0079   0.0064   0.0013  -0.0037  -0.0117  -1.4662   0.7715
  22 OP  :3d2-   0.0068   0.0095   0.0020  -0.0129   0.0122  -0.0064   0.0016
  24 OP  :3d2+   0.0010   0.0059  -0.0113   0.0150  -0.0004  -0.0003  -0.0006
  25 OP  :3d2-  -0.0003  -0.0106  -0.0032  -0.0168   0.0252   0.0457  -0.0067
  26 OP  :3d0    0.0004   0.0087   0.0040   0.0036  -0.0059  -0.0255   0.0072
  27 OP  :3d2+  -0.0018   0.0010   0.0044  -0.0070  -0.0029  -0.0426  -0.0153

 Molecular orbitals for symmetry species  2
 ------------------------------------------

    Orbital         1        2        3        4        5        6        7
   1 OS  :2py    0.0010   0.0715   0.1815  -0.6977   1.1271   0.0275   0.0694
   2 OS  :2py    0.0104  -0.1415  -0.0230   0.0711  -0.2436  -0.4684   0.0385
   3 OS  :2py    0.0008  -0.0200   0.0068   0.0068   0.0113  -3.3188  -0.0293
   4 OS  :3d2-  -0.0002   0.0166  -0.0119  -0.0378   0.0101   0.0001   0.0102
   5 OS  :3d2-   0.0028  -0.0234   0.0018  -0.0429  -0.0241  -0.1356  -0.0518
   6 OP  :1s     0.7082  -0.0048  -0.0010   0.0030  -0.0183   0.0009   0.0000
   7 OP  :1s     0.0042   0.6823  -0.0137  -0.0179  -0.2929   0.0787  -0.0074
   8 OP  :1s    -0.0118   0.0718  -0.0355   0.1144  -0.0344   0.1170   0.0451
   9 OP  :1s    -0.0026   0.0696  -0.0318   0.0383  -0.0540   4.9189  -0.2310
  10 OP  :2px   -0.0011   0.0751  -0.6110   0.1256   0.5086   0.0025  -0.1241
  11 OP  :2py   -0.0018   0.0805   0.3277   0.4997   0.5045   0.1103   0.0504
  12 OP  :2px    0.0041  -0.0323   0.0073  -0.0497  -0.1292  -0.1564  -0.1394
  13 OP  :2py    0.0067  -0.0531   0.0278  -0.0464  -0.0419  -0.2101   0.0242
  14 OP  :2px    0.0002  -0.0032  -0.0265  -0.0109  -0.0095  -1.1425   1.2014
  15 OP  :2py    0.0005  -0.0057   0.0299   0.0006   0.0210  -1.6876   0.0900
  16 OP  :3d2-  -0.0000   0.0004   0.0080  -0.0194  -0.0013  -0.0021   0.0126
  17 OP  :3d0   -0.0002  -0.0003  -0.0024   0.0107   0.0015   0.0066  -0.0032
  19 OP  :3d2-  -0.0017   0.0119   0.0083  -0.0101   0.0030   0.0821  -0.0263
  20 OP  :3d0    0.0012  -0.0095  -0.0007   0.0129   0.0087  -0.0728   0.0094
  21 OP  :3d2+   0.0010  -0.0078   0.0156   0.0118   0.0085  -0.0528  -0.0154

 Molecular orbitals for symmetry species  3
 ------------------------------------------

    Orbital         1        2        3        4
   1 OS  :2pz    0.8365   0.6200  -0.1462  -0.1291
   2 OS  :2pz   -0.0294   0.0020  -0.0968  -0.1693
   3 OS  :2pz    0.0006  -0.0047   0.0558   2.8867
   4 OS  :3d1+   0.0223   0.0046  -0.0074  -0.0133
   5 OS  :3d1+   0.0259   0.0241   0.0017   0.0230
   6 OP  :2pz    0.2892  -0.7461  -0.1119   0.0257
   7 OP  :2pz   -0.0286   0.0845  -0.1477   0.0426
   8 OP  :2pz    0.0080   0.0121   0.6427  -1.4837
   9 OP  :3d1-  -0.0184  -0.0006   0.0054  -0.0033
  10 OP  :3d1+  -0.0105   0.0011   0.0055  -0.0054
  11 OP  :3d1-  -0.0044   0.0055   0.0022   0.0320

 Molecular orbitals for symmetry species  4
 ------------------------------------------

    Orbital         1        2        3
   1 OS  :3d1-   0.0294  -0.0030   0.0162
   2 OS  :3d1-   0.0177  -0.0167   0.4429
   3 OP  :2pz    0.6919  -0.1458  -0.0897
   4 OP  :2pz    0.0096  -0.1810  -0.1470
   5 OP  :2pz    0.0370   1.2133   0.0214
   6 OP  :3d1-  -0.0105   0.0101  -0.0050
   8 OP  :3d1-  -0.0160  -0.0145  -0.0298
   9 OP  :3d1+  -0.0090  -0.0046  -0.5404

 Printout of CI-coefficients abs greater than 0.05000 for root  1
 *** NOTE: this root is the reference state ***

 Printout of coefficients in interval  3.1623E-01 to  1.0000E+00
 ===============================================================

  Coefficient of CSF no.         2 is      0.90813282    9.08132819E-01
  Orbital          1   2   4   5   7   9
  Spin coupling    2   2   2   2   2   2

 Printout of coefficients in interval  1.0000E-01 to  3.1623E-01
 ===============================================================

  Coefficient of CSF no.         1 is     -0.30431019   -3.04310188E-01
  Orbital          1   2   4   5   7   8
  Spin coupling    2   2   2   2   2   2

 Printout of coefficients in interval  5.0000E-02 to  1.0000E-01
 ===============================================================

  Coefficient of CSF no.         3 is     -0.06073358   -6.07335844E-02
  Orbital          1   2   4   5   8   9
  Spin coupling    2   2   2   2   2   2

  Coefficient of CSF no.        17 is     -0.06051677   -6.05167691E-02
  Orbital          1   4   5   7   9   3
  Spin coupling    2   2   2   2   2   2

  Coefficient of CSF no.        26 is     -0.05655623   -5.65562348E-02
  Orbital          1   2   4   7   9   6
  Spin coupling    2   2   2   2   2   2

  Coefficient of CSF no.        34 is     -0.08300626   -8.30062642E-02
  Orbital          1   2   4   5   9   7   8
  Spin coupling    2   2   2   2   2   1  -1

  Coefficient of CSF no.        55 is     -0.09888464   -9.88846358E-02
  Orbital          1   2   4   7   5   8   9   3
  Spin coupling    2   2   2   2   1   1  -1  -1

  Coefficient of CSF no.        63 is      0.07684648    7.68464848E-02
  Orbital          1   4   5   7   2   8   9   6
  Spin coupling    2   2   2   2   1   1  -1  -1

  Coefficient of CSF no.        87 is      0.06270074    6.27007443E-02
  Orbital          1   2   4   9   5   7   8   6
  Spin coupling    2   2   2   2   1   1  -1  -1

  Coefficient of CSF no.        88 is     -0.06128222   -6.12822159E-02
  Orbital          1   2   4   9   5   7   8   6
  Spin coupling    2   2   2   2   1  -1   1  -1

  Coefficient of CSF no.        91 is     -0.05292484   -5.29248447E-02
  Orbital          1   4   5   9   2   7   8   3
  Spin coupling    2   2   2   2   1   1  -1  -1

  Coefficient of CSF no.        92 is      0.05546345    5.54634539E-02
  Orbital          1   4   5   9   2   7   8   3
  Spin coupling    2   2   2   2   1  -1   1  -1

  Coefficient of CSF no.        96 is     -0.08093005   -8.09300499E-02
  Orbital          1   4   7   9   2   5   3   6
  Spin coupling    2   2   2   2   1  -1   1  -1

 Norm of printed CI vector ..      0.97054676

 Magnitude of CI coefficients
 ============================
 ( Ranges are relative to norm of vector :  1.00E+00 )

  10- 1 to 10- 0         2    0.91730991E+00      0.9173099082
  10- 2 to 10- 1        57    0.81082526E-01      0.9983924346
  10- 3 to 10- 2        55    0.16043002E-02      0.9999967348
  10- 4 to 10- 3        12    0.32548721E-05      0.9999999897
  10- 5 to 10- 4         2    0.10333358E-07      1.0000000000
  Number of coefficients less than 10^-11 times norm is            0



 >>>> Total CPU  time used in SIRIUS :      3.26 seconds
 >>>> Total wall time used in SIRIUS :      3.30 seconds

 
     Date and time (Linux)  : Sun Sep  8 20:47:55 2013
     Host name              : lpqlx131.ups-tlse.fr                    

 NOTE:    7 warnings have been issued.
 Check output, result, and error files for "WARNING".


                     .---------------------------------------.
                     | End of Wave Function Section (SIRIUS) |
                     `---------------------------------------'


     Order of analytical energy-derivatives available:   2
     This will be the default.

 Center of mass dipole origin  :    0.842300    0.000000    0.000000

 Center of mass gauge origin   :    0.842300    0.000000    0.000000


                 .------------------------------------------------.
                 | Starting in Static Property Section (ABACUS) - |
                 `------------------------------------------------'


 
     Date and time (Linux)  : Sun Sep  8 20:47:55 2013
     Host name              : lpqlx131.ups-tlse.fr                    


   ***************************************************************************
   ************************ FINAL RESULTS from ABACUS ************************
   ***************************************************************************


 
     Date and time (Linux)  : Sun Sep  8 20:47:56 2013
     Host name              : lpqlx131.ups-tlse.fr                    


                             Molecular geometry (au)
                             -----------------------

 OS         0.0000000000            0.0000000000            0.0000000000
 OP  _1     1.2634502500            2.0449019100            0.0000000000
 OP  _2     1.2634502500           -2.0449019100            0.0000000000





                        Molecular wave function and energy
                        ----------------------------------

     Spin multiplicity  1     State number       1     Total charge       0

     Total energy       -224.5107485163 au (Hartrees)
                         -6109.24823714 eV
                           -589452.8794 kJ/mol


                             Relativistic corrections
                             ------------------------

     Darwin correction:                          0.5988663844 au
     Mass-velocity correction:                  -0.7545386593 au

     Total relativistic correction:             -0.1556722749 au (0.0693%)
     Non-relativistic + relativistic energy:  -224.6664207913 au




                             Molecular gradient (au)
                             -----------------------

                         OS   x     0.0013032736
                         OP   x    -0.0013032736
                         OP   y    -0.0018884725



 OS         0.0013032736            0.0000000000            0.0000000000
 OP  _1    -0.0006516368           -0.0009442363            0.0000000000
 OP  _2    -0.0006516368            0.0009442363            0.0000000000





                                  Dipole moment
                                  -------------

                 au               Debye          C m (/(10**-30)
              0.204763           0.520455           1.736050


                             Dipole moment components
                             ------------------------

                 au               Debye          C m (/(10**-30)

      x     -0.20476269        -0.52045482        -1.73605042


   Units:   1 a.u. =   2.54175 Debye 
            1 a.u. =   8.47835 (10**-30) C m (SI)




   Interatomic separations (in Angstrom):
   --------------------------------------

            OS          OP  _1      OP  _2
            ------      ------      ------
 OS    :    0.000000
 OP  _1:    1.272001    0.000000
 OP  _2:    1.272001    2.164231    0.000000


  Max    interatomic separation is    2.1642 Angstrom (    4.0898 Bohr)
  between atoms    3 and    2, "OP  _2" and "OP  _1".

  Min YX interatomic separation is    1.2720 Angstrom (    2.4037 Bohr)


  Bond distances (Angstrom):
  --------------------------

                  atom 1     atom 2       distance
                  ------     ------       --------
  bond distance:  OP  _1     OS           1.272001
  bond distance:  OP  _2     OS           1.272001


  Bond angles (degrees):
  ----------------------

                  atom 1     atom 2     atom 3         angle
                  ------     ------     ------         -----
  bond angle:     OP  _1     OS         OP  _2       116.580




 CPU time statistics for ABACUS
 ------------------------------

 TWOTEX     00:00:01      97 %

 TOTAL      00:00:01     100 %


 >>>> Total CPU  time used in ABACUS:   1.29 seconds
 >>>> Total wall time used in ABACUS:   1.30 seconds


                   .-------------------------------------------.
                   | End of Static Property Section (ABACUS) - |
                   `-------------------------------------------'



           :::::::::::::::::::::::::::::::::::::::::::::::::::::::::::
           ::::::::::::::: Optimization Control Center :::::::::::::::
           :::::::::::::::::::::::::::::::::::::::::::::::::::::::::::



                                Next geometry (au)
                                ------------------

 OS        -0.0006824555            0.0000000000            0.0000000000
 OP  _1     1.2637914777            2.0456985880            0.0000000000
 OP  _2     1.2637914777           -2.0456985880            0.0000000000





                             Optimization information
                             ------------------------

 Iteration number               :       0
 End of optimization            :       F 
 Energy at this geometry is     :    -224.510749
 Norm of gradient               :       0.002081
 Norm of step                   :       0.002374
 Updated trust radius           :       0.500000
 Total Hessian index            :       0




 **************************************************************************************
 ****************** Output of molecule and basis set info suppressed ******************
 **************************************************************************************



                     .---------------------------------------.
                     | Starting in Integral Section (HERMIT) |
                     `---------------------------------------'



    *************************************************************************
    ****************** Output from HERMIT input processing ******************
    *************************************************************************


 Threshold for neglecting two-electron integrals:  1.00D-12
 Number of two-electron integrals written:      672537 ( 23.1% )
 Megabytes written:                              7.702

 >>>  Time used in TWOINT     is   0.31 seconds
 >>>> Total CPU  time used in HERMIT:   0.33 seconds
 >>>> Total wall time used in HERMIT:   0.34 seconds


                        .----------------------------------.
                        | End of Integral Section (HERMIT) |
                        `----------------------------------'



                   .--------------------------------------------.
                   | Starting in Wave Function Section (SIRIUS) |
                   `--------------------------------------------'


 **********************************************************************
 *SIRIUS* a direct, restricted step, second order MCSCF program       *
 **********************************************************************

 (Wave function specification suppressed here, see output above for initial geometry.)


        SIRIUS MCSCF optimization (SIROPT)
 ================================================


   <<< OUTPUT FROM SIRCNO >>>    Keyword = FD+NO 

     (Precalculated two-electron integrals are transformed to P-supermatrix elements.
      Threshold for discarding integrals :  1.00D-12 )

 "Occupations" of RAS pseudo-natural orbitals:

 Norm of zeroed RAS1-RAS2 block:   1.042493D-01
 Norm of zeroed RAS1-RAS3 block:   8.796681D-02
 Norm of zeroed RAS2-RAS3 block:   0.000000D+00

 Symmetry  1

   1.991686463   1.961197589   0.054709109

 Symmetry  2

   1.993530594   1.955655088   0.043108830

 Symmetry  3

   1.965556243   0.257324556

 Symmetry  4

   1.777231527


 <<< MACRO ITERATION  1 >>>
 --------------------------

 Integral transformation: Total CPU and WALL times (sec)       0.187       0.189

 Total MCSCF energy       :          -224.510749725224571  (MACRO    1)

 - Nuclear repulsion      :            68.866172207619655
 - Inactive energy        :          -253.399928778728679
 - Active energy          :           -39.976993154115561

 Norm of total gradient   :             0.003432453124
 -    of CI gradient      :             0.001180868378
 -    of orbital gradient :             0.003222931014

 WARNING, population analysis for RAS wave functions uses pseudo-natural orbitals,
          that is, the off-diagonal elements of the one-electron density matrix which
          couple the different RAS spaces are ignored.
      Virial theorem: -V/T =      1.986635
@      MULPOP OS     -0.74; OP  _1  0.37; OP  _2  0.37; 

 Residual norm when dim(red L) =  14
 NEO root     CSF        orbital          total
    1     0.00004570     0.00001275     0.00004744 converged

 (NEONEX) NEO vector is converged.

   <<< OUTPUT FROM SIRCNO >>>    Keyword = FD+NO 


 "Occupations" of RAS pseudo-natural orbitals:

 Norm of zeroed RAS1-RAS2 block:   1.042791D-01
 Norm of zeroed RAS1-RAS3 block:   8.802874D-02
 Norm of zeroed RAS2-RAS3 block:   0.000000D+00

 Symmetry  1

   1.991685067   1.961104786   0.054817239

 Symmetry  2

   1.993524374   1.955565852   0.043194306

 Symmetry  3

   1.965522834   0.257945753

 Symmetry  4

   1.776639788


 <<< MACRO ITERATION  2 >>>
 --------------------------

 Integral transformation: Total CPU and WALL times (sec)       0.161       0.163

 Total MCSCF energy       :          -224.510750609578508  (MACRO    2)

 - Nuclear repulsion      :            68.866172207619655
 - Inactive energy        :          -253.402173460852765
 - Active energy          :           -39.974749356345399

 Norm of total gradient   :             0.000047458330
 -    of CI gradient      :             0.000045721443
 -    of orbital gradient :             0.000012721742

 WARNING, population analysis for RAS wave functions uses pseudo-natural orbitals,
          that is, the off-diagonal elements of the one-electron density matrix which
          couple the different RAS spaces are ignored.
      Virial theorem: -V/T =      1.986651
@      MULPOP OS     -0.74; OP  _1  0.37; OP  _2  0.37; 

 Residual norm when dim(red L) =  20
 NEO root     CSF        orbital          total
    1     0.00000909     0.00000310     0.00000961 converged

 (NEONEX) NEO vector is converged.

   <<< OUTPUT FROM SIRCNO >>>    Keyword = FD+NO 


 "Occupations" of RAS pseudo-natural orbitals:

 Norm of zeroed RAS1-RAS2 block:   1.045121D-01
 Norm of zeroed RAS1-RAS3 block:   8.811414D-02
 Norm of zeroed RAS2-RAS3 block:   0.000000D+00

 Symmetry  1

   1.991676453   1.961108958   0.054821554

 Symmetry  2

   1.993519197   1.955567285   0.043198401

 Symmetry  3

   1.965493517   0.257989991

 Symmetry  4

   1.776624644


 <<< MACRO ITERATION  3 >>>
 --------------------------

 Integral transformation: Total CPU and WALL times (sec)       0.159       0.160

 Total MCSCF energy       :          -224.510750613342651  (MACRO    3)

 - Nuclear repulsion      :            68.866172207619655
 - Inactive energy        :          -253.402250303088579
 - Active energy          :           -39.974672517873728

 Norm of total gradient   :             0.000009616240
 -    of CI gradient      :             0.000009102625
 -    of orbital gradient :             0.000003100691

 WARNING, population analysis for RAS wave functions uses pseudo-natural orbitals,
          that is, the off-diagonal elements of the one-electron density matrix which
          couple the different RAS spaces are ignored.
      Virial theorem: -V/T =      1.986650
@      MULPOP OS     -0.74; OP  _1  0.37; OP  _2  0.37; 

 (SIRSTP) Close to convergence, ratio set to one.
 Energy difference; actual and predicted:   -3.76414D-09   -3.76388D-09

 (SIRSTP) Close to convergence, ratio set to one.
 Energy difference; actual and predicted:    1.00007D+00
 Close to convergence, ratio set to one.

 *** Optimization control: MCSCF converged ***
     Number of macro iterations used            3
     Number of micro iterations used           31
     Total number of CPU seconds used         1.08

 Integral transformation: Total CPU and WALL times (sec)       0.189       0.192

 >>>> CPU and wall time for MCSCF :       1.265       1.282


                     .----------------------------------------.
                     | >>> SIRIUS OPTIMIZATION STATISTICS <<< |
                     `----------------------------------------'


 
     Date and time (Linux)  : Sun Sep  8 20:47:58 2013
     Host name              : lpqlx131.ups-tlse.fr                    


  ITER ITMIC     EMCSCF           GRDNRM        RATIO      STPLNG
 ---------------------------------------------------------------------
    1   13   -224.510749725225   0.0034324531  0.000000   0.0009439596
    2   18   -224.510750609579   0.0000474583  1.000071   0.0003231343
    3    0   -224.510750613343   0.0000096162  1.000000   0.0000000000


  ITER  INDGCM  GCIMAX      GCINRM     INDGOM  GOBMAX      GOBNRM      GRDNRM
 ------------------------------------------------------------------------------
    1     96    0.000428    0.001181     12    0.000945    0.003223    0.003432
    2     38    0.000017    0.000046      9    0.000006    0.000013    0.000047
    3     48    0.000002    0.000009      3    0.000002    0.000003    0.000010


  ITER ITMIC NCLIN NOLIN   TIMMAC    TIMITR    TIMMIC    TIMLIN    TIMMIC/ITMIC
 ------------------------------------------------------------------------------

    1    13     6     7      0.41      0.19      0.22      0.21      0.02
    2    18    10     9      0.47      0.16      0.29      0.29      0.02
    3     0     0     0      0.17      0.16      0.00      0.00


 ITER         EMY                 EACTIV              EMCSCF

    1   -253.399928778729    -39.976993154116   -224.510749725225
    2   -253.402173460853    -39.974749356345   -224.510750609579
    3   -253.402250303089    -39.974672517874   -224.510750613343


 ITER         DEPRED              DEACT               RATIO

    1      0.000000000000      0.000000000000      0.000000000000
    2     -0.000000884291     -0.000000884354      1.000071373000
    3     -0.000000003764     -0.000000003764      1.000000000000


 ITER    BETA           GAMMA             STPLNG              RTRUST

    1      0.20000000  1.00000000      0.000943959600      0.700000000000
    2      0.20000000  1.00000000      0.000323134258      0.700000000000
    3      0.00000000  0.00000000      0.000000000000      0.700000000000


 Reduced L root no.  1
 ITER         EVAL              EVEC(1)           EVEC(2)           EVEC(3)
 ----------------------------------------------------------------------------
    1   -0.000000070743    0.999999982179   -0.000062404933   -0.000079804876
    2   -0.000000000301    0.999999997912   -0.000043888092   -0.000004530123
    3    0.000000000000    0.000000000000    0.000000000000    0.000000000000


                       .-----------------------------------.
                       | >>> Final results from SIRIUS <<< |
                       `-----------------------------------'


@    Spin multiplicity:           1
@    Spatial symmetry:            1
@    Total charge of molecule:    0
@    State number:                1

@    Final MCSCF energy:         -224.510750613343                 
@    Nuclear repulsion:            68.866172207620
@    Electronic energy:          -293.376922820962

@    Final gradient norm:           0.000009616240

 
     Date and time (Linux)  : Sun Sep  8 20:47:58 2013
     Host name              : lpqlx131.ups-tlse.fr                    

 Occupancies of natural orbitals
 -------------------------------

 Symmetry  1 -- Total occupation in this symmetry is  12.007606965

   2.000000000   2.000000000   2.000000000   2.000000000   1.992774009
   1.963223513   0.051609444

 Symmetry  2 -- Total occupation in this symmetry is   7.992284883

   2.000000000   2.000000000   1.994289149   1.955618040   0.042377694

 Symmetry  3 -- Total occupation in this symmetry is   2.223483508

   1.971866659   0.251616849

 Symmetry  4 -- Total occupation in this symmetry is   1.776624644

   1.776624644

  >>> NOTE THAT THE OCCUPATION NUMBERS ARE FOR ANALYSIS PURPOSE ONLY
  >>> The orbital coefficients have NOT been transformed
  >>> to ordered natural orbitals.



 >>>> Total CPU  time used in SIRIUS :      1.27 seconds
 >>>> Total wall time used in SIRIUS :      1.29 seconds

 
     Date and time (Linux)  : Sun Sep  8 20:47:58 2013
     Host name              : lpqlx131.ups-tlse.fr                    

 NOTE:   10 warnings have been issued.
 Check output, result, and error files for "WARNING".


                     .---------------------------------------.
                     | End of Wave Function Section (SIRIUS) |
[...]

    1    13     6     7      0.41      0.19      0.22      0.21      0.02
    2    14     8     7      0.41      0.16      0.23      0.22      0.02
    3     0     0     0      0.17      0.16      0.00      0.00


 ITER         EMY                 EACTIV              EMCSCF

    1   -253.381125541977    -39.966215763561   -224.510750449484
    2   -253.383146242710    -39.964195855764   -224.510751242419
    3   -253.383222416226    -39.964119685708   -224.510751245879


 ITER         DEPRED              DEACT               RATIO

    1      0.000000000000      0.000000000000      0.000000000000
    2     -0.000000792883     -0.000000792936      1.000066149275
    3     -0.000000003459     -0.000000003459      1.000000000000


 ITER    BETA           GAMMA             STPLNG              RTRUST

    1      0.20000000  1.00000000      0.000889991686      0.700000000000
    2      0.20000000  1.00000000      0.000309637695      0.700000000000
    3      0.00000000  0.00000000      0.000000000000      0.700000000000


 Reduced L root no.  1
 ITER         EVAL              EVEC(1)           EVEC(2)           EVEC(3)
 ----------------------------------------------------------------------------
    1   -0.000000063431    0.999999984158   -0.000066530513   -0.000075743565
    2   -0.000000000277    0.999999998082   -0.000041958548   -0.000006522080
    3    0.000000000000    0.000000000000    0.000000000000    0.000000000000


                       .-----------------------------------.
                       | >>> Final results from SIRIUS <<< |
                       `-----------------------------------'


@    Spin multiplicity:           1
@    Spatial symmetry:            1
@    Total charge of molecule:    0
@    State number:                1

@    Final MCSCF energy:         -224.510751245879                 
@    Nuclear repulsion:            68.836590856054
@    Electronic energy:          -293.347342101933

@    Final gradient norm:           0.000009635354

 
     Date and time (Linux)  : Sun Sep  8 20:48:01 2013
     Host name              : lpqlx131.ups-tlse.fr                    

 Occupancies of natural orbitals
 -------------------------------

 Symmetry  1 -- Total occupation in this symmetry is  12.007617271

   2.000000000   2.000000000   2.000000000   2.000000000   1.992771618
   1.963144857   0.051700795

 Symmetry  2 -- Total occupation in this symmetry is   7.992278901

   2.000000000   2.000000000   1.994283449   1.955537031   0.042458421

 Symmetry  3 -- Total occupation in this symmetry is   2.224050089

   1.971840775   0.252209314

 Symmetry  4 -- Total occupation in this symmetry is   1.776053739

   1.776053739

  >>> NOTE THAT THE OCCUPATION NUMBERS ARE FOR ANALYSIS PURPOSE ONLY
  >>> The orbital coefficients have NOT been transformed
  >>> to ordered natural orbitals.



 >>>> Total CPU  time used in SIRIUS :      1.22 seconds
 >>>> Total wall time used in SIRIUS :      1.23 seconds

 
     Date and time (Linux)  : Sun Sep  8 20:48:01 2013
     Host name              : lpqlx131.ups-tlse.fr                    

 NOTE:   13 warnings have been issued.
 Check output, result, and error files for "WARNING".


                     .---------------------------------------.
                     | End of Wave Function Section (SIRIUS) |
                     `---------------------------------------'

 Trust radius squarely increased due to very good ratio.
 Updated trust radius   0.50000

     Order of analytical energy-derivatives available:   2
     This will be the default.

 Center of mass dipole origin  :    0.842300    0.000000    0.000000

 Center of mass gauge origin   :    0.842300    0.000000    0.000000


                 .------------------------------------------------.
                 | Starting in Static Property Section (ABACUS) - |
                 `------------------------------------------------'


 
     Date and time (Linux)  : Sun Sep  8 20:48:01 2013
     Host name              : lpqlx131.ups-tlse.fr                    


   ***************************************************************************
   ************************ FINAL RESULTS from ABACUS ************************
   ***************************************************************************


 
     Date and time (Linux)  : Sun Sep  8 20:48:02 2013
     Host name              : lpqlx131.ups-tlse.fr                    


 CPU time statistics for ABACUS
 ------------------------------

 TWOTEX     00:00:01      97 %

 TOTAL      00:00:01     100 %


 >>>> Total CPU  time used in ABACUS:   1.29 seconds
 >>>> Total wall time used in ABACUS:   1.31 seconds


                   .-------------------------------------------.
                   | End of Static Property Section (ABACUS) - |
                   `-------------------------------------------'



           :::::::::::::::::::::::::::::::::::::::::::::::::::::::::::
           ::::::::::::::: Optimization Control Center :::::::::::::::
           :::::::::::::::::::::::::::::::::::::::::::::::::::::::::::



                               Final geometry (au)
                               -------------------

 OS        -0.0014058808            0.0000000000            0.0000000000
 OP  _1     1.2641531904            2.0463395075            0.0000000000
 OP  _2     1.2641531904           -2.0463395075            0.0000000000





                             Optimization information
                             ------------------------

 Iteration number               :       2
 End of optimization            :       T 
 Energy at this geometry is     :    -224.510751
 Energy change from last geom.  :      -0.000001
 Norm of gradient               :       0.000019
 Norm of step                   :       0.000053
 Updated trust radius           :       0.500000
 Total Hessian index            :       0



 Center of mass dipole origin  :    0.842300    0.000000    0.000000

 Center of mass gauge origin   :    0.842300    0.000000    0.000000


                 .------------------------------------------------.
                 | Starting in Static Property Section (ABACUS) - |
                 `------------------------------------------------'


 
     Date and time (Linux)  : Sun Sep  8 20:48:02 2013
     Host name              : lpqlx131.ups-tlse.fr                    


   ***************************************************************************
   ************************ FINAL RESULTS from ABACUS ************************
   ***************************************************************************


 
     Date and time (Linux)  : Sun Sep  8 20:48:02 2013
     Host name              : lpqlx131.ups-tlse.fr                    


                             Molecular geometry (au)
                             -----------------------

 OS        -0.0014058808            0.0000000000            0.0000000000
 OP  _1     1.2641531904            2.0463395075            0.0000000000
 OP  _2     1.2641531904           -2.0463395075            0.0000000000





                        Molecular wave function and energy
                        ----------------------------------

     Spin multiplicity  1     State number       1     Total charge       0

     Total energy       -224.5107512459 au (Hartrees)
                         -6109.24831142 eV
                           -589452.8865 kJ/mol


                             Relativistic corrections
                             ------------------------

     Darwin correction:                          0.5988721255 au
     Mass-velocity correction:                  -0.7545454016 au

     Total relativistic correction:             -0.1556732761 au (0.0693%)
     Non-relativistic + relativistic energy:  -224.6664245219 au




                                  Dipole moment
                                  -------------

                 au               Debye          C m (/(10**-30)
              0.204121           0.518825           1.730613


                             Dipole moment components
                             ------------------------

                 au               Debye          C m (/(10**-30)

      x     -0.20412142        -0.51882487        -1.73061347


   Units:   1 a.u. =   2.54175 Debye 
            1 a.u. =   8.47835 (10**-30) C m (SI)




   Interatomic separations (in Angstrom):
   --------------------------------------

            OS          OP  _1      OP  _2
            ------      ------      ------
 OS    :    0.000000
 OP  _1:    1.273234    0.000000
 OP  _2:    1.273234    2.165752    0.000000


  Max    interatomic separation is    2.1658 Angstrom (    4.0927 Bohr)
  between atoms    3 and    2, "OP  _2" and "OP  _1".

  Min YX interatomic separation is    1.2732 Angstrom (    2.4061 Bohr)


  Bond distances (Angstrom):
  --------------------------

                  atom 1     atom 2       distance
                  ------     ------       --------
  bond distance:  OP  _1     OS           1.273234
  bond distance:  OP  _2     OS           1.273234


  Bond angles (degrees):
  ----------------------

                  atom 1     atom 2     atom 3         angle
                  ------     ------     ------         -----
  bond angle:     OP  _1     OS         OP  _2       116.531




 CPU time statistics for ABACUS
 ------------------------------




 >>>> Total CPU  time used in ABACUS:   0.02 seconds
 >>>> Total wall time used in ABACUS:   0.02 seconds


                   .-------------------------------------------.
                   | End of Static Property Section (ABACUS) - |
                   `-------------------------------------------'


 ------------------------------------------------------------------------------
  RESPONSE  -  an MCSCF, MC-srDFT, DFT, and SOPPA response property program
 ------------------------------------------------------------------------------


 <<<<<<<<<< OUTPUT FROM RESPONSE INPUT PROCESSING >>>>>>>>>>




 Variable settings for Cubic Response calculation
 ------------------------------------------------

 Second hyperpolarizability calculation :  CRCAL= T
 Calculation of a special processes carried out :
 - Dc-Kerr calculation

  2 B-frequencies  0.000000D+00  5.920000D-02
  1 C-frequencies  0.000000D+00
  1 D-frequencies  0.000000D+00

 Print level                                    : IPRCR  =   2
 Threshold for non-zero norm of property vectors: THRNRM = 1.000D-09
 Threshold for convergence of lin. resp. eq.s   : THCLR  = 1.000D-03
 Maximum number of iterations in LR solver      : MAXITL =  60
 Direct one-index transformation                : DIROIT = T

    1 A OPERATORS OF SYMMETRY NO:    3 AND LABELS:

          ZDIPLEN 

    1 B OPERATORS OF SYMMETRY NO:    3 AND LABELS:

          ZDIPLEN 

    1 C OPERATORS OF SYMMETRY NO:    3 AND LABELS:

          ZDIPLEN 

    1 D OPERATORS OF SYMMETRY NO:    3 AND LABELS:

          ZDIPLEN 

 Old direct access AO file found, SORTA skipped.

 Integral transformation: Total CPU and WALL times (sec)       0.439       0.444


 MCSCF energy         :     -224.510751245878851
 -- inactive part     :     -253.383222416225578
 --   active part     :      -39.964119685707729
 -- nuclear repulsion :       68.836590856054457


                        **********************************
                        *** MCSCF response calculation ***
                        **********************************



 <<<<< Solving set of linear response equations for cubic response >>>>>



 Perturbation symmetry.     KSYMOP:       1
 Perturbation spin symmetry.TRPLET:       F
 Orbital variables.         KZWOPT:     271
 Configuration variables.   KZCONF:     128
 Total number of variables. KZVAR :     399


 Perturbation symmetry.     KSYMOP:       2
 Perturbation spin symmetry.TRPLET:       F
 Orbital variables.         KZWOPT:     261
 Configuration variables.   KZCONF:     312
 Total number of variables. KZVAR :     573


 Perturbation symmetry.     KSYMOP:       3
 Perturbation spin symmetry.TRPLET:       F
 Orbital variables.         KZWOPT:     183
 Configuration variables.   KZCONF:     262
 Total number of variables. KZVAR :     445


 CRLRV1 -- linear response calculation for symmetry  3
 CRLRV1 -- operator label : ZDIPLEN 
 CRLRV1 -- frequencies :  0.000000  0.059200



 <<<  SOLVING SETS OF LINEAR EQUATIONS FOR LINEAR RESPONSE PROPERTIES >>>

 Operator symmetry =  3; triplet =   F


 *** THE REQUESTED    2 SOLUTION VECTORS CONVERGED

 Convergence of RSP solution vectors, threshold = 1.00D-03
 ---------------------------------------------------------------
 (dimension of paired reduced space:  110)
 RSP solution vector no.    1; norm of residual   7.13D-04
 RSP solution vector no.    2; norm of residual   8.52D-04

 *** RSPCTL MICROITERATIONS CONVERGED

    ZDIPLEN       freq            LR value
 -----------------------------------------
              0.000000         10.04264007
              0.059200         10.09762836


 Perturbation symmetry.     KSYMOP:       4
 Perturbation spin symmetry.TRPLET:       F
 Orbital variables.         KZWOPT:     173
 Configuration variables.   KZCONF:     262
 Total number of variables. KZVAR :     435
 >>>  Time used in CRVEC1     is   0.89 seconds


 Perturbation symmetry.     KSYMOP:       1
 Perturbation spin symmetry.TRPLET:       F
 Orbital variables.         KZWOPT:     271
 Configuration variables.   KZCONF:     128
 Total number of variables. KZVAR :     399


 CRLRV2 -- linear response calc for sym:  1
 CRLRV2 -- operator label1: ZDIPLEN 
 CRLRV2 -- operator label2: ZDIPLEN 
 CRLRV2 -- freqr1 :   0.000000D+00
 CRLRV2 -- freqr2 :   0.000000D+00



 <<<  SOLVING SETS OF LINEAR EQUATIONS FOR LINEAR RESPONSE PROPERTIES >>>

 Operator symmetry =  1; triplet =   F


 *** THE REQUESTED    1 SOLUTION VECTORS CONVERGED

 Convergence of RSP solution vectors, threshold = 1.00D-03
 ---------------------------------------------------------------
 (dimension of paired reduced space:   42)
 RSP solution vector no.    1; norm of residual   7.69D-04

 *** RSPCTL MICROITERATIONS CONVERGED
    ZDIPLEN     ZDIPLEN      freq1     freq2                Norm
 ---------------------------------------------------------------
                          0.000000  0.000000          8.55383428


 Perturbation symmetry.     KSYMOP:       1
 Perturbation spin symmetry.TRPLET:       F
 Orbital variables.         KZWOPT:     271
 Configuration variables.   KZCONF:     128
 Total number of variables. KZVAR :     399


 CRLRV2 -- linear response calc for sym:  1
 CRLRV2 -- operator label1: ZDIPLEN 
 CRLRV2 -- operator label2: ZDIPLEN 
 CRLRV2 -- freqr1 :   5.920000D-02
 CRLRV2 -- freqr2 :   0.000000D+00



 <<<  SOLVING SETS OF LINEAR EQUATIONS FOR LINEAR RESPONSE PROPERTIES >>>

 Operator symmetry =  1; triplet =   F


 *** THE REQUESTED    1 SOLUTION VECTORS CONVERGED

 Convergence of RSP solution vectors, threshold = 1.00D-03
 ---------------------------------------------------------------
 (dimension of paired reduced space:   54)
 RSP solution vector no.    1; norm of residual   9.28D-04

 *** RSPCTL MICROITERATIONS CONVERGED
    ZDIPLEN     ZDIPLEN      freq1     freq2                Norm
 ---------------------------------------------------------------
                          0.059200  0.000000          8.87149190
 >>>  Time used in CRVEC2     is   1.94 seconds


 <<<<< CALCULATING CONTRIBUTIONS TO SECOND HYPERPOLARIZABILITY >>>>>


   Contribution                Term         Accumulated
 ------------------------------------------------------
 Na T[4] Nb Nc Nd       -3.90522532         -3.90522532
 Na T[3] Nx Nyz         32.80815422         28.90292890
 Na X[3] Ny Nz          41.84307127         70.74600017
 Nx A[3] Ny Nz          13.94769042         84.69369059
 Na X[2] Nyz          -144.78390615        -60.09021556
 Nx A[2] Nyz          -147.37464301       -207.46485857

@ Cubic response function value in a.u. for
@ A operator, symmetry, frequency:   ZDIPLEN    3 -0.000000
@ B operator, symmetry, frequency:   ZDIPLEN    3  0.000000
@ C operator, symmetry, frequency:   ZDIPLEN    3  0.000000
@ D operator, symmetry, frequency:   ZDIPLEN    3  0.000000

@ << A; B, C, D >>  =        -207.46485857



  Summary of gamma values for a set of frequencies
 -------------------------------------------------

@ B-freq:  0.000000
@ C-freq:  0.000000
@ D-freq:  0.000000

@ gamma(Z;Z,Z,Z)        207.4649


   Contribution                Term         Accumulated
 ------------------------------------------------------
 Na T[4] Nb Nc Nd       -4.08737582         -4.08737582
 Na T[3] Nx Nyz         34.62819975         30.54082394
 Na X[3] Ny Nz          42.97438969         73.51521363
 Nx A[3] Ny Nz          14.16235740         87.67757103
 Na X[2] Nyz          -151.91461682        -64.23704579
 Nx A[2] Nyz          -150.58051559       -214.81756138

@ Cubic response function value in a.u. for
@ A operator, symmetry, frequency:   ZDIPLEN    3 -0.059200
@ B operator, symmetry, frequency:   ZDIPLEN    3  0.059200
@ C operator, symmetry, frequency:   ZDIPLEN    3  0.000000
@ D operator, symmetry, frequency:   ZDIPLEN    3  0.000000

@ << A; B, C, D >>  =        -214.81756138



  Summary of gamma values for a set of frequencies
 -------------------------------------------------

@ B-freq:  0.059200
@ C-freq:  0.000000
@ D-freq:  0.000000

@ gamma(Z;Z,Z,Z)        214.8176

 >>>> Total CPU  time used in RESPONSE:  10.11 seconds
 >>>> Total wall time used in RESPONSE:  10.58 seconds


          <<<<<<<<<<<<<<<<<<<<<<<<<<<<<<<<<<<<<<<<<<<<<<<<<<<<<<<<<<<<<<
          <<<<<<<<<<<<<<<<<<<<  End of Optimization <<<<<<<<<<<<<<<<<<<<
          <<<<<<<<<<<<<<<<<<<<<<<<<<<<<<<<<<<<<<<<<<<<<<<<<<<<<<<<<<<<<<



                                  Final geometry
                                  --------------

 OS        -0.0014058808            0.0000000000            0.0000000000
 OP  _1     1.2641531904            2.0463395075            0.0000000000
 OP  _2     1.2641531904           -2.0463395075            0.0000000000



@ Iter      Energy        Change       GradNorm  Index   StepLen    TrustRad #Rej
@ -------------------------------------------------------------------------------
@   0     -224.510749     0.000000     0.002081    0    0.002374*   0.500000   0 
@   1     -224.510751    -0.000002     0.001007    0    0.002091*   0.500000   0 
@   2     -224.510751    -0.000001     0.000019    0    0.000053*   0.500000   0 

@  *) Newton step taken.


   Interatomic separations (in Angstrom):
   --------------------------------------

            OS          OP  _1      OP  _2
            ------      ------      ------
 OS    :    0.000000
 OP  _1:    1.273234    0.000000
 OP  _2:    1.273234    2.165752    0.000000


  Max    interatomic separation is    2.1658 Angstrom (    4.0927 Bohr)
  between atoms    3 and    2, "OP  _2" and "OP  _1".

  Min YX interatomic separation is    1.2732 Angstrom (    2.4061 Bohr)


  Bond distances (Angstrom):
  --------------------------

                  atom 1     atom 2       distance
                  ------     ------       --------
  bond distance:  OP  _1     OS           1.273234
  bond distance:  OP  _2     OS           1.273234


  Bond angles (degrees):
  ----------------------

                  atom 1     atom 2     atom 3         angle
                  ------     ------     ------         -----
  bond angle:     OP  _1     OS         OP  _2       116.531



@ Geometry converged in  3 iterations!

@ Energy at final geometry is       :    -224.510751 a.u.
@ Energy change during optimization :      -0.000003 a.u.
@                                             -0.007 kJ/mol

 >>>> Total CPU  time used in DALTON:  20.80 seconds
 >>>> Total wall time used in DALTON:  21.41 seconds

 
     Date and time (Linux)  : Sun Sep  8 20:48:13 2013
     Host name              : lpqlx131.ups-tlse.fr                    
