

     ************************************************************************
     *************** Dalton - An Electronic Structure Program ***************
     ************************************************************************

    This is output from DALTON (Release Dalton2013 patch 0)
   ----------------------------------------------------------------------------
    NOTE:
     
    Dalton is an experimental code for the evaluation of molecular
    properties using (MC)SCF, DFT, CI, and CC wave functions.
    The authors accept no responsibility for the performance of
    the code or for the correctness of the results.
     
    The code (in whole or part) is provided under a licence and
    is not to be reproduced for further distribution without
    the written permission of the authors or their representatives.
     
    See the home page "http://daltonprogram.org" for further information.
     
    If results obtained with this code are published,
    the appropriate citations would be both of:
     
       K. Aidas, C. Angeli, K. L. Bak, V. Bakken, R. Bast,
       L. Boman, O. Christiansen, R. Cimiraglia, S. Coriani,
       P. Dahle, E. K. Dalskov, U. Ekstroem, T. Enevoldsen,
       J. J. Eriksen, P. Ettenhuber, B. Fernandez, L. Ferrighi,
       H. Fliegl, L. Frediani, K. Hald, A. Halkier, C. Haettig,
       H. Heiberg, T. Helgaker, A. C. Hennum, H. Hettema,
       E. Hjertenaes, S. Hoest, I.-M. Hoeyvik, M. F. Iozzi,
       B. Jansik, H. J. Aa. Jensen, D. Jonsson, P. Joergensen,
       J. Kauczor, S. Kirpekar, T. Kjaergaard, W. Klopper,
       S. Knecht, R. Kobayashi, H. Koch, J. Kongsted, A. Krapp,
       K. Kristensen, A. Ligabue, O. B. Lutnaes, J. I. Melo,
       K. V. Mikkelsen, R. H. Myhre, C. Neiss, C. B. Nielsen,
       P. Norman, J. Olsen, J. M. H. Olsen, A. Osted,
       M. J. Packer, F. Pawlowski, T. B. Pedersen, P. F. Provasi,
       S. Reine, Z. Rinkevicius, T. A. Ruden, K. Ruud, V. Rybkin,
       P. Salek, C. C. M. Samson, A. Sanchez de Meras, T. Saue,
       S. P. A. Sauer, B. Schimmelpfennig, K. Sneskov,
       A. H. Steindal, K. O. Sylvester-Hvid, P. R. Taylor,
       A. M. Teale, E. I. Tellgren, D. P. Tew, A. J. Thorvaldsen,
       L. Thoegersen, O. Vahtras, M. A. Watson, D. J. D. Wilson,
       M. Ziolkowski and H. Agren.
       The Dalton quantum chemistry program system.
       WIREs Comput. Mol. Sci. 2013. doi: 10.1002/wcms.1172
    
    and
    
       Dalton, a Molecular Electronic Structure Program,
       Release DALTON2013.0 (2013), see http://daltonprogram.org
   ----------------------------------------------------------------------------

    Authors in alphabetical order (major contribution(s) in parenthesis):

  Kestutis Aidas,           Vilnius University,           Lithuania   (QM/MM)
  Celestino Angeli,         University of Ferrara,        Italy       (NEVPT2)
  Keld L. Bak,              UNI-C,                        Denmark     (AOSOPPA, non-adiabatic coupling, magnetic properties)
  Vebjoern Bakken,          University of Oslo,           Norway      (DALTON; geometry optimizer, symmetry detection)
  Radovan Bast,             KTH Stockholm                 Sweden      (DALTON installation and execution frameworks)
  Linus Boman,              NTNU,                         Norway      (Cholesky decomposition and subsystems)
  Ove Christiansen,         Aarhus University,            Denmark     (CC module)
  Renzo Cimiraglia,         University of Ferrara,        Italy       (NEVPT2)
  Sonia Coriani,            University of Trieste,        Italy       (CC module, MCD in RESPONS)
  Paal Dahle,               University of Oslo,           Norway      (Parallelization)
  Erik K. Dalskov,          UNI-C,                        Denmark     (SOPPA)
  Thomas Enevoldsen,        Univ. of Southern Denmark,    Denmark     (SOPPA)
  Janus J. Eriksen,         Aarhus University,            Denmark     (PE-MP2/SOPPA, TDA)
  Berta Fernandez,          U. of Santiago de Compostela, Spain       (doublet spin, ESR in RESPONS)
  Lara Ferrighi,            Aarhus University,            Denmark     (PCM Cubic response)
  Heike Fliegl,             University of Oslo,           Norway      (CCSD(R12))
  Luca Frediani,            UiT The Arctic U. of Norway,  Norway      (PCM)
  Bin Gao,                  UiT The Arctic U. of Norway,  Norway      (Gen1Int library)
  Christof Haettig,         Ruhr-University Bochum,       Germany     (CC module)
  Kasper Hald,              Aarhus University,            Denmark     (CC module)
  Asger Halkier,            Aarhus University,            Denmark     (CC module)
  Hanne Heiberg,            University of Oslo,           Norway      (geometry analysis, selected one-electron integrals)
  Trygve Helgaker,          University of Oslo,           Norway      (DALTON; ABACUS, ERI, DFT modules, London, and much more)
  Alf Christian Hennum,     University of Oslo,           Norway      (Parity violation)
  Hinne Hettema,            University of Auckland,       New Zealand (quadratic response in RESPONS; SIRIUS supersymmetry)
  Eirik Hjertenaes,         NTNU,                         Norway      (Cholesky decomposition)
  Maria Francesca Iozzi,    University of Oslo,           Norway      (RPA)
  Brano Jansik              Technical Univ. of Ostrava    Czech Rep.  (DFT cubic response)
  Hans Joergen Aa. Jensen,  Univ. of Southern Denmark,    Denmark     (DALTON; SIRIUS, RESPONS, ABACUS modules, London, and much more)
  Dan Jonsson,              UiT The Arctic U. of Norway,  Norway      (cubic response in RESPONS module)
  Poul Joergensen,          Aarhus University,            Denmark     (RESPONS, ABACUS, and CC modules)
  Joanna Kauczor,           Linkoeping University,        Sweden      (Complex polarization propagator (CPP) module)
  Sheela Kirpekar,          Univ. of Southern Denmark,    Denmark     (Mass-velocity & Darwin integrals)
  Wim Klopper,              KIT Karlsruhe,                Germany     (R12 code in CC, SIRIUS, and ABACUS modules)
  Stefan Knecht,            ETH Zurich,                   Switzerland (Parallel CI and MCSCF)
  Rika Kobayashi,           Australian National Univ.,    Australia   (DIIS in CC, London in MCSCF)
  Henrik Koch,              NTNU,                         Norway      (CC module, Cholesky decomposition)
  Jacob Kongsted,           Univ. of Southern Denmark,    Denmark     (Polarizable embedding, QM/MM)
  Andrea Ligabue,           University of Modena,         Italy       (CTOCD, AOSOPPA)
  Ola B. Lutnaes,           University of Oslo,           Norway      (DFT Hessian)
  Juan I. Melo,             University of Buenos Aires,   Argentina   (LRESC, Relativistic Effects on NMR Shieldings)
  Kurt V. Mikkelsen,        University of Copenhagen,     Denmark     (MC-SCRF and QM/MM)
  Rolf H. Myhre,            NTNU,                         Norway      (Cholesky, subsystems and ECC2)
  Christian Neiss,          Univ. Erlangen-Nuernberg,     Germany     (CCSD(R12))
  Christian B. Nielsen,     University of Copenhagen,     Denmark     (QM/MM)
  Patrick Norman,           Linkoeping University,        Sweden      (Cubic response and complex response in RESPONS)
  Jeppe Olsen,              Aarhus University,            Denmark     (SIRIUS CI/density modules)
  Jogvan Magnus H. Olsen,   Univ. of Southern Denmark,    Denmark     (Polarizable embedding, PE library, QM/MM)
  Anders Osted,             Copenhagen University,        Denmark     (QM/MM)
  Martin J. Packer,         University of Sheffield,      UK          (SOPPA)
  Filip Pawlowski,          Kazimierz Wielki University   Poland      (CC3)
  Thomas B. Pedersen,       University of Oslo,           Norway      (Cholesky decomposition)
  Patricio F. Provasi,      University of Northeastern,   Argentina   (Analysis of coupling constants in localized orbitals)
  Zilvinas Rinkevicius,     KTH Stockholm,                Sweden      (open-shell DFT, ESR)
  Elias Rudberg,            KTH Stockholm,                Sweden      (DFT grid and basis info)
  Torgeir A. Ruden,         University of Oslo,           Norway      (Numerical derivatives in ABACUS)
  Kenneth Ruud,             UiT The Arctic U. of Norway,  Norway      (DALTON; ABACUS magnetic properties and  much more)
  Pawel Salek,              KTH Stockholm,                Sweden      (DALTON; DFT code)
  Claire C. M. Samson       University of Karlsruhe       Germany     (Boys localization, r12 integrals in ERI)
  Alfredo Sanchez de Meras, University of Valencia,       Spain       (CC module, Cholesky decomposition)
  Trond Saue,               Paul Sabatier University,     France      (direct Fock matrix construction)
  Stephan P. A. Sauer,      University of Copenhagen,     Denmark     (SOPPA(CCSD), SOPPA prop., AOSOPPA, vibrational g-factors)
  Bernd Schimmelpfennig,    Forschungszentrum Karlsruhe,  Germany     (AMFI module)
  Kristian Sneskov,         Aarhus University,            Denmark     (QM/MM, PE-CC)
  Arnfinn H. Steindal,      UiT The Arctic U. of Norway,  Norway      (parallel QM/MM)
  K. O. Sylvester-Hvid,     University of Copenhagen,     Denmark     (MC-SCRF)
  Peter R. Taylor,          VLSCI/Univ. of Melbourne,     Australia   (Symmetry handling ABACUS, integral transformation)
  Andrew M. Teale,          University of Nottingham,     England     (DFT-AC, DFT-D)
  David P. Tew,             University of Bristol,        England     (CCSD(R12))
  Olav Vahtras,             KTH Stockholm,                Sweden      (triplet response, spin-orbit, ESR, TDDFT, open-shell DFT)
  David J. Wilson,          La Trobe University,          Australia   (DFT Hessian and DFT magnetizabilities)
  Hans Agren,               KTH Stockholm,                Sweden      (SIRIUS module, RESPONS, MC-SCRF solvation model)
 --------------------------------------------------------------------------------

     Date and time (Linux)  : Sun Sep  8 20:42:21 2013
     Host name              : lpqlx131.ups-tlse.fr                    

 * Work memory size             :    64000000 =  488.28 megabytes.

 * Directories for basis set searches:
   1) /home/bast/DALTON-2013.0-Source/build/test_cc_fop_prop4
   2) /home/bast/DALTON-2013.0-Source/build/basis


Compilation information
-----------------------

 Who compiled             | bast
 Host                     | lpqlx131.ups-tlse.fr
 System                   | Linux-3.8.5-201.fc18.x86_64
 CMake generator          | Unix Makefiles
 Processor                | x86_64
 64-bit integers          | OFF
 MPI                      | OFF
 Fortran compiler         | /usr/bin/gfortran
 Fortran compiler version | GNU Fortran (GCC) 4.7.2 20121109 (Red Hat 4.7.2-8)
 C compiler               | /usr/bin/gcc
 C compiler version       | gcc (GCC) 4.7.2 20121109 (Red Hat 4.7.2-8)
 C++ compiler             | /usr/bin/g++
 C++ compiler version     | g++ (GCC) 4.7.2 20121109 (Red Hat 4.7.2-8)
 Static linking           | OFF
 Last Git revision        | f34203295a86316e27f9e7b44f9b6769c4a046c0
 Configuration time       | 2013-09-08 20:31:27.952056


   Content of the .dal input file
 ----------------------------------

**DALTON INPUT                                    
.RUN WAVE FUNCTIONS                               
**INTEGRAL                                        
.DIPLEN                                           
.THETA                                            
.EFGCAR                                           
.SECMOM                                           
.DARWIN                                           
.MASSVELO                                         
**WAVE FUNCTION                                   
.CC                                               
*SCF INP                                          
.THRESH                                           
 1.0D-10                                          
.DOUBLY OCCUPIED                                  
 5 1 1 0                                          
*CC INP                                           
.CCS                                              
.MP2                                              
.CCSD                                             
.PRINT                                            
 4                                                
.THRENR                                           
1.0D-10                                           
.THRLEQ                                           
1.0D-07                                           
*CCFOP                                            
.ALLONE                                           
**END OF DALTON INPUT                             


   Content of the .mol file
 ----------------------------

BASIS                                                                          
aug-cc-pVDZ                                                                    
first order property calculation on CO                                         
dunning-basis                                                                  
    2    2  X  Y  Z   1.00D-15                                                 
        6.0   1                                                                
C     0.0000000000000000  0.0000000000000000 1.21824313000000000       *       
        8.0   1                                                                
O     0.0000000000000000  0.0000000000000000 -.91397310000000000       *       


       *******************************************************************
       *********** Output from DALTON general input processing ***********
       *******************************************************************

 --------------------------------------------------------------------------------
   Overall default print level:    0
   Print level for DALTON.STAT:    1

    HERMIT 1- and 2-electron integral sections will be executed
    "Old" integral transformation used (limited to max 255 basis functions)
    Wave function sections will be executed (SIRIUS module)
 --------------------------------------------------------------------------------


   ****************************************************************************
   *************** Output of molecule and basis set information ***************
   ****************************************************************************


    The two title cards from your ".mol" input:
    ------------------------------------------------------------------------
 1: first order property calculation on CO                                  
 2: dunning-basis                                                           
    ------------------------------------------------------------------------

  Atomic type no.    1
  --------------------
  Nuclear charge:   6.00000
  Number of symmetry independent centers:    1
  Number of basis sets to read;    2
  Basis set file used for this atomic type with Z =   6 :
     "/home/bast/DALTON-2013.0-Source/build/basis/aug-cc-pVDZ"

  Atomic type no.    2
  --------------------
  Nuclear charge:   8.00000
  Number of symmetry independent centers:    1
  Number of basis sets to read;    2
  Basis set file used for this atomic type with Z =   8 :
     "/home/bast/DALTON-2013.0-Source/build/basis/aug-cc-pVDZ"


                         SYMGRP: Point group information
                         -------------------------------

Point group: C2v

   * The point group was generated by:

      Reflection in the yz-plane
      Reflection in the xz-plane

   * Group multiplication table

        |  E   C2z  Oxz  Oyz
   -----+--------------------
     E  |  E   C2z  Oxz  Oyz
    C2z | C2z   E   Oyz  Oxz
    Oxz | Oxz  Oyz   E   C2z
    Oyz | Oyz  Oxz  C2z   E 

   * Character table

        |  E   C2z  Oxz  Oyz
   -----+--------------------
    A1  |   1    1    1    1
    B1  |   1   -1    1   -1
    B2  |   1   -1   -1    1
    A2  |   1    1   -1   -1

   * Direct product table

        | A1   B1   B2   A2 
   -----+--------------------
    A1  | A1   B1   B2   A2 
    B1  | B1   A1   A2   B2 
    B2  | B2   A2   A1   B1 
    A2  | A2   B2   B1   A1 


                                 Isotopic Masses
                                 ---------------

                           C          12.000000
                           O          15.994915

                       Total mass:    27.994915 amu
                       Natural abundance:  98.663 %

 Center-of-mass coordinates (a.u.):    0.000000    0.000000   -0.000000


  Atoms and basis sets
  --------------------

  Number of atom types :    2
  Total number of atoms:    2

  Basis set used is "aug-cc-pVDZ" from the basis set library.

  label    atoms   charge   prim   cont     basis
  ----------------------------------------------------------------------
  C           1    6.0000    35    23      [10s5p2d|4s3p2d]                                   
  O           1    8.0000    35    23      [10s5p2d|4s3p2d]                                   
  ----------------------------------------------------------------------
  total:      2   14.0000    70    46
  ----------------------------------------------------------------------
  Spherical harmonic basis used.

  Threshold for neglecting AO integrals:  1.00D-15


  Cartesian Coordinates (a.u.)
  ----------------------------

  Total number of coordinates:    6
  C       :     1  x   0.0000000000    2  y   0.0000000000    3  z   1.2182431300
  O       :     4  x   0.0000000000    5  y   0.0000000000    6  z  -0.9139731000


  Symmetry Coordinates
  --------------------

  Number of coordinates in each symmetry:     2    2    2    0

  Symmetry  A1  ( 1)

    1   C     z    3
    2   O     z    6

  Symmetry  B1  ( 2)

    3   C     x    1
    4   O     x    4

  Symmetry  B2  ( 3)

    5   C     y    2
    6   O     y    5


   Interatomic separations (in Angstrom):
   --------------------------------------

            C           O     
            ------      ------
 C     :    0.000000
 O     :    1.128320    0.000000


  Max    interatomic separation is    1.1283 Angstrom (    2.1322 Bohr)
  between atoms    2 and    1, "O     " and "C     ".

  Min YX interatomic separation is    1.1283 Angstrom (    2.1322 Bohr)


  Bond distances (Angstrom):
  --------------------------

                  atom 1     atom 2       distance
                  ------     ------       --------
  bond distance:  O          C            1.128320




 Principal moments of inertia (u*A**2) and principal axes
 --------------------------------------------------------

   IA       0.000000          0.000000    0.000000    1.000000
   IB       8.728684          0.000000    1.000000    0.000000
   IC       8.728684          1.000000    0.000000    0.000000


 Rotational constants
 --------------------

 The molecule is linear.

               B =        57898.65 MHz     (    1.931291 cm-1)


@  Nuclear repulsion energy :   22.511788121977 Hartree


  Symmetry Orbitals
  -----------------

  Number of orbitals in each symmetry:          22   10   10    4


  Symmetry  A1 ( 1)

    1     C        1s         1
    2     C        1s         2
    3     C        1s         3
    4     C        1s         4
    5     C        2pz        7
    6     C        2pz       10
    7     C        2pz       13
    8     C        3d0       16
    9     C        3d2+      18
   10     C        3d0       21
   11     C        3d2+      23
   12     O        1s        24
   13     O        1s        25
   14     O        1s        26
   15     O        1s        27
   16     O        2pz       30
   17     O        2pz       33
   18     O        2pz       36
   19     O        3d0       39
   20     O        3d2+      41
   21     O        3d0       44
   22     O        3d2+      46


  Symmetry  B1 ( 2)

   23     C        2px        5
   24     C        2px        8
   25     C        2px       11
   26     C        3d1+      17
   27     C        3d1+      22
   28     O        2px       28
   29     O        2px       31
   30     O        2px       34
   31     O        3d1+      40
   32     O        3d1+      45


  Symmetry  B2 ( 3)

   33     C        2py        6
   34     C        2py        9
   35     C        2py       12
   36     C        3d1-      15
   37     C        3d1-      20
   38     O        2py       29
   39     O        2py       32
   40     O        2py       35
   41     O        3d1-      38
   42     O        3d1-      43


  Symmetry  A2 ( 4)

   43     C        3d2-      14
   44     C        3d2-      19
   45     O        3d2-      37
   46     O        3d2-      42

  Symmetries of electric field:  B1 (2)  B2 (3)  A1 (1)

  Symmetries of magnetic field:  B2 (3)  B1 (2)  A2 (4)


                     .---------------------------------------.
                     | Starting in Integral Section (HERMIT) |
                     `---------------------------------------'



    *************************************************************************
    ****************** Output from HERMIT input processing ******************
    *************************************************************************


 Default print level:        1

 * Nuclear model: Point charge

 Calculation of one- and two-electron Hamiltonian integrals.

 The following one-electron property integrals are calculated as requested:
          - overlap integrals
          - dipole length integrals
          - traceless quadrupole moment integrals
          - second moment integrals
          - mass velocity integrals
          - 1-electron Darwin integrals
          - Cartesien electric field gradient integrals

 Center of mass  (bohr):      0.000000000000      0.000000000000     -0.000000160271
 Operator center (bohr):      0.000000000000      0.000000000000      0.000000000000
 Gauge origin    (bohr):      0.000000000000      0.000000000000      0.000000000000
 Dipole origin   (bohr):      0.000000000000      0.000000000000      0.000000000000


     ************************************************************************
     ************************** Output from HERINT **************************
     ************************************************************************


 Threshold for neglecting two-electron integrals:  1.00D-15
 Number of two-electron integrals written:      129929 ( 22.2% )
 Megabytes written:                              1.491

 >>>> Total CPU  time used in HERMIT:   0.12 seconds
 >>>> Total wall time used in HERMIT:   0.12 seconds


                        .----------------------------------.
                        | End of Integral Section (HERMIT) |
                        `----------------------------------'



                   .--------------------------------------------.
                   | Starting in Wave Function Section (SIRIUS) |
                   `--------------------------------------------'


 *** Output from Huckel module :

     Using EWMO model:          T
     Using EHT  model:          F
     Number of Huckel orbitals each symmetry:    6    2    2    0

 EWMO - Energy Weighted Maximum Overlap - is a Huckel type method,
        which normally is better than Extended Huckel Theory.
 Reference: Linderberg and Ohrn, Propagators in Quantum Chemistry (Wiley, 1973)

 Huckel EWMO eigenvalues for symmetry :  1
          -20.685997     -11.349518      -1.578780      -0.796800      -0.456136
           -0.137669

 Huckel EWMO eigenvalues for symmetry :  2
           -0.717166      -0.305934

 Huckel EWMO eigenvalues for symmetry :  3
           -0.717166      -0.305934

 **********************************************************************
 *SIRIUS* a direct, restricted step, second order MCSCF program       *
 **********************************************************************

 
     Date and time (Linux)  : Sun Sep  8 20:42:21 2013
     Host name              : lpqlx131.ups-tlse.fr                    

 Title lines from ".mol" input file:
     first order property calculation on CO                                  
     dunning-basis                                                           

 Print level on unit LUPRI =   2 is   0
 Print level on unit LUW4  =   2 is   5

@    (Integral direct) CC calculation.

@    This is a combination run starting with
@              a restricted, closed shell Hartree-Fock calculation


 Initial molecular orbitals are obtained according to
 ".MOSTART EWMO  " input option

     Wave function specification
     ============================

     For the specification of the Coupled Cluster: see later.

@    For the wave function of type :      >>> CC <<<
@    Number of closed shell electrons          14
@    Number of electrons in active shells       0
@    Total charge of the molecule               0

@    Spin multiplicity and 2 M_S                1         0
     Total number of symmetries                 4
@    Reference state symmetry                   1

     Orbital specifications
     ======================
     Abelian symmetry species          All |    1    2    3    4
                                       --- |  ---  ---  ---  ---
@    Occupied SCF orbitals               7 |    5    1    1    0
     Secondary orbitals                 39 |   17    9    9    4
     Total number of orbitals           46 |   22   10   10    4
     Number of basis functions          46 |   22   10   10    4

     Optimization information
     ========================
@    Number of configurations                 1
@    Number of orbital rotations            103
     ------------------------------------------
@    Total number of variables              104

     Maximum number of Fock   iterations      0
     Maximum number of DIIS   iterations     60
     Maximum number of QC-SCF iterations     60
     Threshold for SCF convergence     1.00D-10


 Changes of defaults for CC:
 ---------------------------

 -Dipole moment calculated
 -Traceless quadrupole moment calculated
 -Electric field gradient calculated
 -Relativistic corrections to energy calculated
 -Electronic second moment of charge calculated
  


 >>>>> DIIS optimization of Hartree-Fock <<<<<

 C1-DIIS algorithm; max error vectors =   10

 Iter      Total energy        Error norm    Delta(E)  DIIS dim.
 -----------------------------------------------------------------------------
     (Precalculated two-electron integrals are transformed to P-supermatrix elements.
      Threshold for discarding integrals :  1.00D-15 )
@  1    -112.480399735        2.16231D+00   -1.12D+02    1
      Virial theorem: -V/T =      2.006808
@      MULPOP C       0.37; O      -0.37; 
 -----------------------------------------------------------------------------
@  2    -112.741948953        4.70063D-01   -2.62D-01    2
      Virial theorem: -V/T =      1.998075
@      MULPOP C       0.22; O      -0.22; 
 -----------------------------------------------------------------------------
@  3    -112.753693011        1.16680D-01   -1.17D-02    3
      Virial theorem: -V/T =      2.001140
@      MULPOP C       0.29; O      -0.29; 
 -----------------------------------------------------------------------------
@  4    -112.754433788        7.00937D-02   -7.41D-04    4
      Virial theorem: -V/T =      2.002221
@      MULPOP C       0.24; O      -0.24; 
 -----------------------------------------------------------------------------
@  5    -112.754678811        1.18661D-02   -2.45D-04    5
      Virial theorem: -V/T =      2.001543
@      MULPOP C       0.26; O      -0.26; 
 -----------------------------------------------------------------------------
@  6    -112.754690486        2.73734D-03   -1.17D-05    6
      Virial theorem: -V/T =      2.001609
@      MULPOP C       0.26; O      -0.26; 
 -----------------------------------------------------------------------------
@  7    -112.754691101        4.60855D-04   -6.16D-07    7
      Virial theorem: -V/T =      2.001618
@      MULPOP C       0.26; O      -0.26; 
 -----------------------------------------------------------------------------
@  8    -112.754691121        5.00809D-05   -1.93D-08    8
      Virial theorem: -V/T =      2.001620
@      MULPOP C       0.26; O      -0.26; 
 -----------------------------------------------------------------------------
@  9    -112.754691121        5.47937D-06   -3.87D-10    9
      Virial theorem: -V/T =      2.001620
@      MULPOP C       0.26; O      -0.26; 
 -----------------------------------------------------------------------------
@ 10    -112.754691121        7.14784D-07   -4.55D-12   10
      Virial theorem: -V/T =      2.001620
@      MULPOP C       0.26; O      -0.26; 
 -----------------------------------------------------------------------------
@ 11    -112.754691121        1.04850D-07   -8.53D-14   10
      Virial theorem: -V/T =      2.001620
@      MULPOP C       0.26; O      -0.26; 
 -----------------------------------------------------------------------------
@ 12    -112.754691121        1.09905D-08   -8.53D-14   10
      Virial theorem: -V/T =      2.001620
@      MULPOP C       0.26; O      -0.26; 
 -----------------------------------------------------------------------------
@ 13    -112.754691121        1.32617D-09    2.84D-14   10
      Virial theorem: -V/T =      2.001620
@      MULPOP C       0.26; O      -0.26; 
 -----------------------------------------------------------------------------
@ 14    -112.754691121        1.64960D-10    2.84D-14   10
      Virial theorem: -V/T =      2.001620
@      MULPOP C       0.26; O      -0.26; 
 -----------------------------------------------------------------------------
@ 15    -112.754691121        1.83648D-11   -2.84D-14   10

@ *** DIIS converged in  15 iterations !
@     Converged SCF energy, gradient:   -112.754691121006    1.84D-11
    - total time used in SIRFCK :              0.00 seconds


 *** SCF orbital energy analysis ***

 Only the five lowest virtual orbital energies printed in each symmetry.

 Number of electrons :   14
 Orbital occupations :    5    1    1    0

 Sym       Hartree-Fock orbital energies

  1    -20.67846452   -11.37381290    -1.52990942    -0.80830438    -0.55469059
         0.08132473     0.10569535     0.22525041     0.33495984     0.43391281

  2     -0.64098997     0.07903855     0.17092708     0.24793545     0.60312300
         0.74604265

  3     -0.64098997     0.07903855     0.17092708     0.24793545     0.60312300
         0.74604265

  4      0.43391281     1.05443041     1.65308723     3.54993388

    E(LUMO) :     0.07903855 au (symmetry 2)
  - E(HOMO) :    -0.55469059 au (symmetry 1)
  ------------------------------------------
    gap     :     0.63372913 au

 >>> Writing SIRIFC interface file <<<

 >>>> CPU and wall time for SCF :       0.023       0.023


                       .-----------------------------------.
                       | >>> Final results from SIRIUS <<< |
                       `-----------------------------------'


@    Spin multiplicity:           1
@    Spatial symmetry:            1
@    Total charge of molecule:    0

@    Final HF energy:            -112.754691121006                 
@    Nuclear repulsion:            22.511788121977
@    Electronic energy:          -135.266479242982

@    Final gradient norm:           0.000000000018

 
     Date and time (Linux)  : Sun Sep  8 20:42:21 2013
     Host name              : lpqlx131.ups-tlse.fr                    

 (Only coefficients >0.0100 are printed.)

 Molecular orbitals for symmetry species  1
 ------------------------------------------

    Orbital         1        2        3        4        5        6        7
   1 C   :1s    -0.0003   1.0028  -0.0073   0.0077  -0.0086   0.0157   0.0131
   2 C   :1s    -0.0007   0.0115   0.4619   0.5963   0.5823   0.1447  -0.1310
   3 C   :1s    -0.0052  -0.0053  -0.1669  -0.1005   0.1168  -0.9664   0.0741
   4 C   :1s    -0.0012   0.0006   0.0132   0.0326   0.0218  -3.2724   0.9557
   5 C   :2pz    0.0003  -0.0073  -0.3285  -0.2029   0.6944   0.1425  -0.1273
   6 C   :2pz    0.0038   0.0035   0.1518   0.0840  -0.1329   0.7048  -0.3512
   7 C   :2pz    0.0002   0.0001  -0.0015  -0.0064   0.0124   1.2127   1.2071
   8 C   :3d0    0.0006   0.0016   0.0455   0.0244  -0.0385  -0.0202   0.0386
  10 C   :3d0   -0.0015  -0.0009  -0.0167   0.0002   0.0046  -0.1626  -0.0238
  12 O   :1s    -1.0012  -0.0001  -0.0096  -0.0022  -0.0027  -0.0116   0.0126
  13 O   :1s    -0.0051   0.0023   0.8252  -0.4661  -0.0755   0.0690   0.0878
  14 O   :1s     0.0097  -0.0055  -0.1131  -0.1521   0.0642   0.4222  -0.1863
  15 O   :1s     0.0025  -0.0007  -0.0415  -0.1188   0.0900   3.4274  -0.3216
  16 O   :2pz   -0.0026   0.0009   0.2358   0.7252  -0.3687  -0.0791   0.0330
  17 O   :2pz    0.0040  -0.0056  -0.1003  -0.1180   0.0719   0.2623  -0.0887
  18 O   :2pz    0.0002   0.0001  -0.0227  -0.0096   0.0089   0.7377  -0.5808
  19 O   :3d0   -0.0005   0.0005   0.0225   0.0222  -0.0155   0.0018  -0.0006
  21 O   :3d0    0.0006  -0.0027  -0.0171  -0.0044   0.0178   0.0418  -0.0247

 Molecular orbitals for symmetry species  2
 ------------------------------------------

    Orbital         1        2        3
   1 C   :2px   -0.4362  -0.2429   0.6714
   2 C   :2px    0.1076  -0.0477   0.5727
   3 C   :2px    0.0053  -1.3029  -0.4587
   4 C   :3d1+   0.0563  -0.0266  -0.0146
   5 C   :3d1+  -0.0104   0.0525   0.0365
   6 O   :2px   -0.7988   0.2759  -0.3273
   7 O   :2px    0.0016   0.0462  -0.1548
   8 O   :2px   -0.0375   0.5921  -0.4418
   9 O   :3d1+  -0.0276  -0.0037   0.0194
  10 O   :3d1+  -0.0226   0.0022  -0.0278

 Molecular orbitals for symmetry species  3
 ------------------------------------------

    Orbital         1        2        3
   1 C   :2py   -0.4362  -0.2429   0.6714
   2 C   :2py    0.1076  -0.0477   0.5727
   3 C   :2py    0.0053  -1.3029  -0.4587
   4 C   :3d1-   0.0563  -0.0266  -0.0146
   5 C   :3d1-  -0.0104   0.0525   0.0365
   6 O   :2py   -0.7988   0.2759  -0.3273
   7 O   :2py    0.0016   0.0462  -0.1548
   8 O   :2py   -0.0375   0.5921  -0.4418
   9 O   :3d1-  -0.0276  -0.0037   0.0194
  10 O   :3d1-  -0.0226   0.0022  -0.0278

 Molecular orbitals for symmetry species  4
 ------------------------------------------

    Orbital         1        2
   1 C   :3d2-   0.0293  -0.0783
   2 C   :3d2-  -1.0140   0.5839
   3 O   :3d2-  -0.0227   0.0199
   4 O   :3d2-   0.0047  -1.1372



 >>>> Total CPU  time used in SIRIUS :      0.03 seconds
 >>>> Total wall time used in SIRIUS :      0.03 seconds

 
     Date and time (Linux)  : Sun Sep  8 20:42:21 2013
     Host name              : lpqlx131.ups-tlse.fr                    


                     .---------------------------------------.
                     | End of Wave Function Section (SIRIUS) |
                     `---------------------------------------'



                    .------------------------------------------.
                    | Starting in Coupled Cluster Section (CC) |
                    `------------------------------------------'

  

 *******************************************************************************
 *******************************************************************************
 *                                                                             *
 *                                                                             *
 *                    START OF COUPLED CLUSTER CALCULATION                     *
 *                                                                             *
 *                                                                             *
 *******************************************************************************
 *******************************************************************************



 CCR12 ANSATZ =   0

 CCR12 APPROX =   0

   

 *******************************************************************
 *                                                                 *
 *<<<<<<<<<<                                             >>>>>>>>>>*
 *<<<<<<<<<< OUTPUT FROM COUPLED CLUSTER ENERGY PROGRAM  >>>>>>>>>>*
 *<<<<<<<<<<                                             >>>>>>>>>>*
 *                                                                 *
 *******************************************************************


             The Direct Coupled Cluster Energy Program
             -----------------------------------------


          Number of t1 amplitudes                 :       103
          Number of t2 amplitudes                 :     10519
          Total number of amplitudes in ccsd      :     10622



          CCS CALC. - NO WAVEFUNCTION OPTIMIZATION
   

 *******************************************************************
 *                                                                 *
 *<<<<<<<<<<<<< OUTPUT FROM COUPLED CLUSTER RESPONSE  >>>>>>>>>>>>>*
 *                                                                 *
 *<<<<<<<<<<    CALCULATION OF FIRST ORDER PROPERTIES    >>>>>>>>>>*
 *                                                                 *
 *******************************************************************



                         +-------------------------------+
                         ! Coupled Cluster model is: CCS !
                         +-------------------------------+

  


             +--------------------------------------------------------+
             !   Relaxed  CCS    First-order one-electron properties: !
             +--------------------------------------------------------+



                            +-------------------------+
                            !  Electric Dipole Moment !
                            +-------------------------+



                          Total Molecular Dipole Moment
                          -----------------------------

                 au               Debye          C m (/(10**-30)

      z      0.10221637         0.25980807         0.86662643




                          +-----------------------------+
                          !  Electric Quadrupole Moment !
                          +-----------------------------+



                        Total Molecular quadrupole moment
                        ---------------------------------

                    X              Y              Z

               Column   1     Column   2     Column   3
       1       0.79101074     0.00000000     0.00000000
       2       0.00000000     0.79101074     0.00000000
       3       0.00000000     0.00000000    -1.58202147
    ==== End of matrix output ====


                      +-------------------------------------+
                      !  Electronic second moment of charge !
                      +-------------------------------------+

                    X              Y              Z

               Column   1     Column   2     Column   3
       1       7.61982381     0.00000000     0.00000000
       2       0.00000000     7.61982381     0.00000000
       3       0.00000000     0.00000000    24.78931784
    ==== End of matrix output ====

 Alfa**2 Invariant:                        178.035342
 Beta**2 Invariant:                        294.791525

 Isotropic Property:                        13.342988 a.u.
 Property anisotropy invariant:             17.169494 a.u.


                           +---------------------------+
                           !  Electric Field Gradients !
                           +---------------------------+



      *********************************************************************
      **************** ABACUS - Nuclear Quadrupole moments ****************
      *********************************************************************


Total non-diagonalized EFG Tensor   C     

               Column   1     Column   2     Column   3
       1       0.51799495     0.00000000     0.00000000
       2       0.00000000     0.51799495     0.00000000
       3       0.00000000     0.00000000    -1.03598990
    ==== End of matrix output ====

Total non-diagonalized EFG Tensor   O     

               Column   1     Column   2     Column   3
       1       0.25986404     0.00000000     0.00000000
       2       0.00000000     0.25986404     0.00000000
       3       0.00000000     0.00000000    -0.51972808
    ==== End of matrix output ====
 String on input: "C       "
 String on input: "C       "
 String on input: "O       "
 String on input: "O       "

EFG Principal axis                  C     

               Column   1     Column   2     Column   3
       1       1.00000000     0.00000000     0.00000000
       2       0.00000000     1.00000000     0.00000000
       3       0.00000000     0.00000000     1.00000000
    ==== End of matrix output ====

EFG Principal axis                  O     

               Column   1     Column   2     Column   3
       1       1.00000000     0.00000000     0.00000000
       2       0.00000000     1.00000000     0.00000000
       3       0.00000000     0.00000000     1.00000000
    ==== End of matrix output ====


                         Nuclear quadrupole moment for C
                         -------------------------------



                         Nuclear quadrupole moment for O
                         -------------------------------

          Spin     :  2.5          Quadrupole moment:-.02558000
                            au           MHz        Gauss
 O      17    Vx =       0.259864    -1.561887    -0.557966
 O      17    Vy =       0.259864    -1.561887    -0.557966
 O      17    Vz =      -0.519728     3.123773     1.115933
                 Asymmetry constant eta:      0.000000
                 Auxiliary value au  1/T  0.424194D-05


           +------------------------------------------------------------+
           !  Pauli relativistic corrections to the ground-state energy !
           +------------------------------------------------------------+

  
         1-elec. Darwin term:      0.260552166
         ------------------- 
  
         Mass-Velocity term:      -0.327183850
         ------------------  
  
         Mass-Velocity + 1-elec. Darwin terms:      -0.066631684
         ------------------------------------ 

 *******************************************************************

 Ground state energy is target 

 Ecorr =                   -112.75469112100560664658

 *******************************************************************


 CCR12 ANSATZ =   0

 CCR12 APPROX =   0

   

 *******************************************************************
 *                                                                 *
 *<<<<<<<<<<                                             >>>>>>>>>>*
 *<<<<<<<<<< OUTPUT FROM COUPLED CLUSTER ENERGY PROGRAM  >>>>>>>>>>*
 *<<<<<<<<<<                                             >>>>>>>>>>*
 *                                                                 *
 *******************************************************************


             The Direct Coupled Cluster Energy Program
             -----------------------------------------


          Number of t1 amplitudes                 :       103
          Number of t2 amplitudes                 :     10519
          Total number of amplitudes in ccsd      :     10622

 Iter.  1: Coupled cluster MP2   energy :    -113.0587392087977321
     Conventional correlation energy:    -0.3040480877921254





             +-------------------------------------------------------+
             ! Final results from the Coupled Cluster energy program !
             +-------------------------------------------------------+



            Total SCF   energy:                  -112.7546911210

            Total MP2   energy:                  -113.0587392088

   

 *******************************************************************
 *                                                                 *
 *<<<<<<<<<<<<< OUTPUT FROM COUPLED CLUSTER RESPONSE  >>>>>>>>>>>>>*
 *                                                                 *
 *<<<<<<<<<<    CALCULATION OF FIRST ORDER PROPERTIES    >>>>>>>>>>*
 *                                                                 *
 *******************************************************************



                    +-----------------------------------------+
                    ! Model is second order pert. theory: MP2 !
                    +-----------------------------------------+



 Analysis of the undifferentiated Lagrangian multipliers:
 --------------------------------------------------------


          CC_PRAM:Overall Contribution of the Different Components
          --------------------------------------------------------



          Single Excitation Contribution :               0.0000 %

          Double Excitation Contribution :             100.0000 %

          ||T1||/||T2||                  :               0.0000

          Norm of Total Amplitude Vector :               0.6139


 +=============================================================================+
 | symmetry|  orbital index  |   Excitation Numbers             |   Amplitude  |
 |  Index  |   a   b   i   j |      NAI      NBJ |     NAIBJ    |              |
 +=============================================================================+
 +-----------------------------------------------------------------------------+
 | 1 1 1 1 |   8   8   4   4 |       59       59 |         1770 |   -0.035752  |
 | 1 1 1 1 |  11  11   4   4 |       62       62 |         1953 |   -0.034536  |
 | 1 1 1 1 |   6   6   5   5 |       74       74 |         2775 |   -0.031467  |
 | 1 1 1 1 |  10  10   5   5 |       78       78 |         3081 |   -0.052335  |
 | 2 1 2 1 |   2   8   1   3 |       87       42 |         3783 |    0.036814  |
 | 2 1 2 1 |   2   4   1   4 |       87       55 |         3796 |    0.025595  |
 | 2 1 2 1 |   2   6   1   4 |       87       57 |         3798 |    0.032546  |
 | 2 1 2 1 |   2   8   1   4 |       87       59 |         3800 |    0.051433  |
 | 2 1 2 1 |   5   8   1   4 |       90       59 |         4064 |    0.032196  |
 | 2 1 2 1 |   1  11   1   4 |       86       62 |         3717 |   -0.030778  |
 | 2 1 2 1 |   2  11   1   4 |       87       62 |         3803 |    0.036174  |
 | 2 1 2 1 |   3  11   1   4 |       88       62 |         3890 |    0.035712  |
 | 2 1 2 1 |   6  11   1   4 |       91       62 |         4157 |    0.031485  |
 | 2 1 2 1 |   7  11   1   4 |       92       62 |         4248 |    0.040714  |
 | 2 1 2 1 |   2  14   1   4 |       87       65 |         3806 |    0.027733  |
 | 2 1 2 1 |   2   4   1   5 |       87       72 |         3813 |    0.026770  |
 | 2 1 2 1 |   2   8   1   5 |       87       76 |         3817 |   -0.032009  |
 | 2 1 2 1 |   1  10   1   5 |       86       78 |         3733 |    0.029688  |
 | 2 1 2 1 |   2  10   1   5 |       87       78 |         3819 |   -0.054451  |
 | 2 1 2 1 |   5  10   1   5 |       90       78 |         4083 |   -0.027276  |
 | 2 1 2 1 |   6  10   1   5 |       91       78 |         4173 |   -0.025209  |
 | 3 1 3 1 |   2   8   1   3 |       96       42 |         4602 |    0.036814  |
 | 3 1 3 1 |   2   4   1   4 |       96       55 |         4615 |    0.025595  |
 | 3 1 3 1 |   2   6   1   4 |       96       57 |         4617 |    0.032546  |
 | 3 1 3 1 |   2   8   1   4 |       96       59 |         4619 |    0.051433  |
 | 3 1 3 1 |   5   8   1   4 |       99       59 |         4910 |    0.032196  |
 | 3 1 3 1 |   1  11   1   4 |       95       62 |         4527 |   -0.030778  |
 | 3 1 3 1 |   2  11   1   4 |       96       62 |         4622 |    0.036174  |
 | 3 1 3 1 |   3  11   1   4 |       97       62 |         4718 |    0.035712  |
 | 3 1 3 1 |   6  11   1   4 |      100       62 |         5012 |    0.031485  |
 | 3 1 3 1 |   7  11   1   4 |      101       62 |         5112 |    0.040714  |
 | 3 1 3 1 |   2  14   1   4 |       96       65 |         4625 |    0.027733  |
 | 3 1 3 1 |   2   4   1   5 |       96       72 |         4632 |    0.026770  |
 | 3 1 3 1 |   2   8   1   5 |       96       76 |         4636 |   -0.032009  |
 | 3 1 3 1 |   1  10   1   5 |       95       78 |         4543 |    0.029688  |
 | 3 1 3 1 |   2  10   1   5 |       96       78 |         4638 |   -0.054451  |
 | 3 1 3 1 |   5  10   1   5 |       99       78 |         4929 |   -0.027276  |
 | 3 1 3 1 |   6  10   1   5 |      100       78 |         5028 |   -0.025209  |
 | 2 2 2 2 |   1   1   1   1 |       86       86 |         3741 |   -0.035758  |
 | 2 2 2 2 |   2   1   1   1 |       87       86 |         3827 |    0.047550  |
 | 2 2 2 2 |   3   1   1   1 |       88       86 |         3914 |    0.032290  |
 | 2 2 2 2 |   2   2   1   1 |       87       87 |         3828 |   -0.078927  |
 | 2 2 2 2 |   3   2   1   1 |       88       87 |         3915 |   -0.037425  |
 | 2 2 2 2 |   4   2   1   1 |       89       87 |         4003 |   -0.030539  |
 | 2 2 2 2 |   3   3   1   1 |       88       88 |         3916 |   -0.033263  |
 | 2 2 2 2 |   6   6   1   1 |       91       91 |         4186 |   -0.026820  |
 | 2 2 2 2 |   7   7   1   1 |       92       92 |         4278 |   -0.037568  |
 | 3 2 3 2 |   1   1   1   1 |       95       86 |         4551 |   -0.054934  |
 | 3 2 3 2 |   2   1   1   1 |       96       86 |         4646 |    0.072147  |
 | 3 2 3 2 |   3   1   1   1 |       97       86 |         4742 |    0.049663  |
 | 3 2 3 2 |   4   1   1   1 |       98       86 |         4839 |    0.031145  |
 | 3 2 3 2 |   7   1   1   1 |      101       86 |         5136 |    0.029211  |
 | 3 2 3 2 |   1   2   1   1 |       95       87 |         4552 |    0.072147  |
 | 3 2 3 2 |   2   2   1   1 |       96       87 |         4647 |   -0.118178  |
 | 3 2 3 2 |   3   2   1   1 |       97       87 |         4743 |   -0.057022  |
 | 3 2 3 2 |   4   2   1   1 |       98       87 |         4840 |   -0.045547  |
 | 3 2 3 2 |   5   2   1   1 |       99       87 |         4938 |   -0.035532  |
 | 3 2 3 2 |   7   2   1   1 |      101       87 |         5137 |   -0.034516  |
 | 3 2 3 2 |   1   3   1   1 |       95       88 |         4553 |    0.049663  |
 | 3 2 3 2 |   2   3   1   1 |       96       88 |         4648 |   -0.057022  |
 | 3 2 3 2 |   3   3   1   1 |       97       88 |         4744 |   -0.050484  |
 | 3 2 3 2 |   4   3   1   1 |       98       88 |         4841 |   -0.029037  |
 | 3 2 3 2 |   6   3   1   1 |      100       88 |         5038 |   -0.029477  |
 | 3 2 3 2 |   7   3   1   1 |      101       88 |         5138 |   -0.032730  |
 | 3 2 3 2 |   1   4   1   1 |       95       89 |         4554 |    0.031145  |
 | 3 2 3 2 |   2   4   1   1 |       96       89 |         4649 |   -0.045547  |
 | 3 2 3 2 |   3   4   1   1 |       97       89 |         4745 |   -0.029037  |
 | 3 2 3 2 |   7   4   1   1 |      101       89 |         5139 |   -0.026163  |
 | 3 2 3 2 |   2   5   1   1 |       96       90 |         4650 |   -0.035532  |
 | 3 2 3 2 |   5   5   1   1 |       99       90 |         4941 |   -0.032367  |
 | 3 2 3 2 |   3   6   1   1 |       97       91 |         4747 |   -0.029477  |
 | 3 2 3 2 |   6   6   1   1 |      100       91 |         5041 |   -0.035992  |
 | 3 2 3 2 |   1   7   1   1 |       95       92 |         4557 |    0.029211  |
 | 3 2 3 2 |   2   7   1   1 |       96       92 |         4652 |   -0.034516  |
 | 3 2 3 2 |   3   7   1   1 |       97       92 |         4748 |   -0.032730  |
 | 3 2 3 2 |   4   7   1   1 |       98       92 |         4845 |   -0.026163  |
 | 3 2 3 2 |   7   7   1   1 |      101       92 |         5142 |   -0.048677  |
 | 3 3 3 3 |   1   1   1   1 |       95       95 |         4560 |   -0.035758  |
 | 3 3 3 3 |   2   1   1   1 |       96       95 |         4655 |    0.047550  |
 | 3 3 3 3 |   3   1   1   1 |       97       95 |         4751 |    0.032290  |
 | 3 3 3 3 |   2   2   1   1 |       96       96 |         4656 |   -0.078927  |
 | 3 3 3 3 |   3   2   1   1 |       97       96 |         4752 |   -0.037425  |
 | 3 3 3 3 |   4   2   1   1 |       98       96 |         4849 |   -0.030539  |
 | 3 3 3 3 |   3   3   1   1 |       97       97 |         4753 |   -0.033263  |
 | 3 3 3 3 |   6   6   1   1 |      100      100 |         5050 |   -0.026820  |
 | 3 3 3 3 |   7   7   1   1 |      101      101 |         5151 |   -0.037568  |
 | 2 2 1 1 |   2   2   4   4 |       29       29 |         5791 |   -0.028133  |
 | 2 2 1 1 |   2   1   5   5 |       38       37 |         6096 |    0.033640  |
 | 2 2 1 1 |   2   2   5   5 |       38       38 |         6097 |   -0.059617  |
 | 1 2 2 1 |   8   2   1   4 |       53       29 |         6763 |   -0.030030  |
 | 1 2 2 1 |   9   2   1   4 |       54       29 |         6816 |   -0.025648  |
 | 1 2 2 1 |  10   2   1   5 |       55       38 |         6879 |    0.032563  |
 | 4 2 3 1 |   2   2   1   4 |       64       29 |         7401 |   -0.025648  |
 | 4 1 3 2 |   2   9   1   1 |       64       54 |         7426 |   -0.035272  |
 | 4 1 3 2 |   4  16   1   1 |       66       61 |         7562 |   -0.025404  |
 | 3 3 1 1 |   2   2   4   4 |       29       29 |         8002 |   -0.028133  |
 | 3 3 1 1 |   2   1   5   5 |       38       37 |         8307 |    0.033640  |
 | 3 3 1 1 |   2   2   5   5 |       38       38 |         8308 |   -0.059617  |
 | 4 3 2 1 |   2   2   1   4 |       47       29 |         8677 |   -0.025648  |
 | 1 3 3 1 |   8   2   1   4 |       57       29 |         9192 |   -0.030030  |
 | 1 3 3 1 |   9   2   1   4 |       58       29 |         9249 |    0.025648  |
 | 1 3 3 1 |  10   2   1   5 |       59       38 |         9316 |    0.032563  |
 | 1 4 3 2 |   9   2   1   1 |       58       47 |         9267 |    0.035272  |
 | 1 4 3 2 |  16   4   1   1 |       65       49 |         9696 |    0.025404  |
 | 2 3 3 2 |   2   1   1   1 |       31       21 |        10264 |   -0.029187  |
 | 2 3 3 2 |   1   2   1   1 |       30       22 |        10235 |   -0.029187  |
 | 2 3 3 2 |   2   2   1   1 |       31       22 |        10265 |    0.047186  |
 +=============================================================================+


          Norm of Printed Amplitude Vector :             0.4138

          Printed all single excitations greater than 0.010000

          Printed all double excitations greater than 0.025000


                   Calculating diagonal blocks of zeta-kappa-0
                   -------------------------------------------



                          +------------------------------+
                          ! Zeta-kappa-0 diagonal blocks !
                          +------------------------------+

  
 Norm of occupied-occupied block:   9.5423219357433378E-002
 Norm of virtual-virtual block:   7.8338792640828700E-002
  
 Diagonal blocks of Zeta-kappa-0 calculated
 Total time used in MP2_ZKDIA:   3.0000060796737671E-003


                 Constructing right-hand-side for MP2-kappa-0(ai)
                 ------------------------------------------------

  
 MP2 Eta-0(kappa) calculation completed
 Total time used in MP2_KANEW:   2.3000001907348633E-002
 CC_FOP> Norm of RHS vector:   5.9142055449280320E-002


                      Solving for orbital relaxation vector
                      -------------------------------------



  THIS IS OUTPUT FROM THE MCSCF AND SOPPA RESPONSE SOLVER
 ---------------------------------------------------------


 Symmetry of singlet property operator     1
 Number of operators for singlet linear response equations:     1
 Number of response frequencies:     1
 Convergence threshold:     1.00D-07

 Integral transformation: Total CPU and WALL times (sec)       0.031       0.032


 >>>>>>>>>> Symmetry of excitation/property operator    1

 Number of operators for linear response equations:     1
 Number of response frequencies:     1


 Perturbation symmetry.     KSYMOP:       1
 Perturbation spin symmetry.TRPLET:       F
 Orbital variables.         KZWOPT:     103
 Configuration variables.   KZCONF:       0
 Total number of variables. KZVAR :     103


 RSPLLE -- linear response calculation for symmetry  1
 RSPLLE -- operator no.  1 out of  1
 RSPLLE -- frequencies :  0.000000



 <<<  SOLVING SETS OF LINEAR EQUATIONS FOR LINEAR RESPONSE PROPERTIES >>>

 Operator symmetry =  1; triplet =   F


 *** THE REQUESTED    1 SOLUTION VECTORS CONVERGED

 Convergence of RSP solution vectors, threshold = 1.00D-07
 ---------------------------------------------------------------
 (dimension of paired reduced space:   20)
 RSP solution vector no.    1; norm of residual   5.95D-08

 *** RSPCTL MICROITERATIONS CONVERGED

 EIGENVECTOR NUMBER     1

     Orbital operator symmetry = 1
     (only elements abs greater than   10.00 % of max abs value)

      Index(r,s)      r      s        (r s) operator      (s r) operator
      ----------    -----  -----      --------------      --------------
          42         3(1)  13(1)        0.0064742843       -0.0064742843
          48         3(1)  19(1)        0.0076176877       -0.0076176877
          49         3(1)  20(1)       -0.0066498473        0.0066498473
          52         4(1)   6(1)       -0.0063981151        0.0063981151
          54         4(1)   8(1)       -0.0108423978        0.0108423978
          57         4(1)  11(1)       -0.0136446043        0.0136446043
          61         4(1)  15(1)       -0.0084153637        0.0084153637
          65         4(1)  19(1)        0.0056060500       -0.0056060500
          69         5(1)   6(1)        0.0316196923       -0.0316196923
          70         5(1)   7(1)       -0.0155949441        0.0155949441
          71         5(1)   8(1)       -0.0128759000        0.0128759000
          72         5(1)   9(1)        0.0334330387       -0.0334330387
          74         5(1)  11(1)       -0.0105684369        0.0105684369
          76         5(1)  13(1)       -0.0165913704        0.0165913704
          78         5(1)  15(1)       -0.0238920942        0.0238920942
          79         5(1)  16(1)       -0.0055756914        0.0055756914
          82         5(1)  19(1)       -0.0076215247        0.0076215247
          83         5(1)  20(1)        0.0055475128       -0.0055475128
          86        23(2)  24(2)       -0.0310960925        0.0310960925
          87        23(2)  25(2)        0.0526586096       -0.0526586096
          88        23(2)  26(2)        0.0117208016       -0.0117208016
          90        23(2)  28(2)        0.0195208038       -0.0195208038
          91        23(2)  29(2)        0.0054792000       -0.0054792000
          92        23(2)  30(2)       -0.0289061564        0.0289061564
          95        33(3)  34(3)       -0.0310960925        0.0310960925
          96        33(3)  35(3)        0.0526586096       -0.0526586096
          97        33(3)  36(3)        0.0117208016       -0.0117208016
          99        33(3)  38(3)        0.0195208038       -0.0195208038
         100        33(3)  39(3)        0.0054792000       -0.0054792000
         101        33(3)  40(3)       -0.0289061564        0.0289061564

       73 elements with absolute value less than 5.27D-03 not printed.

 The numbers in parenthesis give the orbital symmetry.

     Configuration operator symmetry = 1
     >> NO ELEMENTS <<


 Time used in linear response calculation is      0.01 CPU seconds for symmetry 1

 >>> Total time used in response solver is         0.04 CPU seconds.

   Equations converged to residual less than:  0.000000
  
 Norm of zeta-kappa-0:   4.4579278632122896E-002
 CCFOP: call CC_D1AO to recalc the 1e Density


                            +--------------------------+
                            ! MP2  Natural Occupations !
                            +--------------------------+

  
   Symmetry block number:  1
   ---------------------
  
   1.99990534   1.99984601   1.98705244   1.96890493   1.96521142
   0.02276164   0.01156839   0.00695034   0.00619382   0.00578081
   0.00163645   0.00135632   0.00081573   0.00029723   0.00022702
   0.00013078   0.00008080   0.00005876   0.00003269   0.00000347
   0.00000172  -0.00018388
  
   Sum in this symmetry class:   9.978632
  
   Symmetry block number:  2
   ---------------------
  
   1.94518294   0.04938001   0.00632104   0.00383895   0.00136636
   0.00046064   0.00022031   0.00015142   0.00002621  -0.00001057
  
   Sum in this symmetry class:   2.006937
  
   Symmetry block number:  3
   ---------------------
  
   1.94518294   0.04938001   0.00632104   0.00383895   0.00136636
   0.00046064   0.00022031   0.00015142   0.00002621  -0.00001057
  
   Sum in this symmetry class:   2.006937
  
   Symmetry block number:  4
   ---------------------
  
   0.00578081   0.00135632   0.00029723   0.00005876
  
   Sum in this symmetry class:   0.007493
  
  
   Total Sum of natural occupation numbers:  14.000000
  
   Dynamical correlation move: 0.188714 electrons
  


             +--------------------------------------------------------+
             !   Relaxed  MP2    First-order one-electron properties: !
             +--------------------------------------------------------+



                            +-------------------------+
                            !  Electric Dipole Moment !
                            +-------------------------+



                          Total Molecular Dipole Moment
                          -----------------------------

                 au               Debye          C m (/(10**-30)

      z     -0.11657084        -0.29629350        -0.98832873




                          +-----------------------------+
                          !  Electric Quadrupole Moment !
                          +-----------------------------+



                        Total Molecular quadrupole moment
                        ---------------------------------

                    X              Y              Z

               Column   1     Column   2     Column   3
       1       0.78547135     0.00000000     0.00000000
       2       0.00000000     0.78547135     0.00000000
       3       0.00000000     0.00000000    -1.57094270
    ==== End of matrix output ====


                      +-------------------------------------+
                      !  Electronic second moment of charge !
                      +-------------------------------------+

                    X              Y              Z

               Column   1     Column   2     Column   3
       1       7.76520665     0.00000000     0.00000000
       2       0.00000000     7.76520665     0.00000000
       3       0.00000000     0.00000000    24.92362191
    ==== End of matrix output ====

 Alfa**2 Invariant:                        181.836552
 Beta**2 Invariant:                        294.411214

 Isotropic Property:                        13.484678 a.u.
 Property anisotropy invariant:             17.158415 a.u.


                           +---------------------------+
                           !  Electric Field Gradients !
                           +---------------------------+



      *********************************************************************
      **************** ABACUS - Nuclear Quadrupole moments ****************
      *********************************************************************


Total non-diagonalized EFG Tensor   C     

               Column   1     Column   2     Column   3
       1       0.40069988     0.00000000     0.00000000
       2       0.00000000     0.40069988     0.00000000
       3       0.00000000     0.00000000    -0.80139976
    ==== End of matrix output ====

Total non-diagonalized EFG Tensor   O     

               Column   1     Column   2     Column   3
       1       0.30105800     0.00000000     0.00000000
       2       0.00000000     0.30105800     0.00000000
       3       0.00000000     0.00000000    -0.60211599
    ==== End of matrix output ====
 String on input: "C       "
 String on input: "C       "
 String on input: "O       "
 String on input: "O       "

EFG Principal axis                  C     

               Column   1     Column   2     Column   3
       1       1.00000000     0.00000000     0.00000000
       2       0.00000000     1.00000000     0.00000000
       3       0.00000000     0.00000000     1.00000000
    ==== End of matrix output ====

EFG Principal axis                  O     

               Column   1     Column   2     Column   3
       1       1.00000000     0.00000000     0.00000000
       2       0.00000000     1.00000000     0.00000000
       3       0.00000000     0.00000000     1.00000000
    ==== End of matrix output ====


                         Nuclear quadrupole moment for C
                         -------------------------------



                         Nuclear quadrupole moment for O
                         -------------------------------

          Spin     :  2.5          Quadrupole moment:-.02558000
                            au           MHz        Gauss
 O      17    Vx =       0.301058    -1.809479    -0.646416
 O      17    Vy =       0.301058    -1.809479    -0.646416
 O      17    Vz =      -0.602116     3.618957     1.292831
                 Asymmetry constant eta:      0.000000
                 Auxiliary value au  1/T  0.569341D-05


           +------------------------------------------------------------+
           !  Pauli relativistic corrections to the ground-state energy !
           +------------------------------------------------------------+

  
         1-elec. Darwin term:      0.260493812
         ------------------- 
  
         Mass-Velocity term:      -0.327191994
         ------------------  
  
         Mass-Velocity + 1-elec. Darwin terms:      -0.066698182
         ------------------------------------ 

 *******************************************************************

 Ground state energy is target 

 Ecorr =                   -113.05873920879773208981

 *******************************************************************

 requested model not yet implemented


 CCR12 ANSATZ =   0

 CCR12 APPROX =   0

   

 *******************************************************************
 *                                                                 *
 *<<<<<<<<<<                                             >>>>>>>>>>*
 *<<<<<<<<<< OUTPUT FROM COUPLED CLUSTER ENERGY PROGRAM  >>>>>>>>>>*
 *<<<<<<<<<<                                             >>>>>>>>>>*
 *                                                                 *
 *******************************************************************


             The Direct Coupled Cluster Energy Program
             -----------------------------------------


          Number of t1 amplitudes                 :       103
          Number of t2 amplitudes                 :     10519
          Total number of amplitudes in ccsd      :     10622

 Iter.  1: Coupled cluster RSTAR energy :    -113.0587392087977321
     Conventional correlation energy:    -0.3040480877921254

       Iteration no.:  1
       -----------------

       Time used in   RHS - TOTAL  :       0.08 seconds
       Norm^2 of omega1 after ccvec:        0.3865103260D-02
       Norm^2 of omega2 after ccvec:        0.9936911533D-02
 Iter.  1: Coupled cluster CCSD  energy :    -113.0514095102861063
     Conventional correlation energy:    -0.2967183892804997

       Iteration no.:  2
       -----------------

       Time used in   RHS - TOTAL  :       0.08 seconds
       Norm^2 of omega1 after ccvec:        0.1946346227D-03
       Norm^2 of omega2 after ccvec:        0.1952230934D-02
 Iter.  2: Coupled cluster CCSD  energy :    -113.0623288869240213
     Conventional correlation energy:    -0.3076377659184146

       Iteration no.:  3
       -----------------

       Time used in   RHS - TOTAL  :       0.08 seconds
       Norm^2 of omega1 after ccvec:        0.6079300854D-04
       Norm^2 of omega2 after ccvec:        0.1842964496D-03
 Iter.  3: Coupled cluster CCSD  energy :    -113.0655900859606930
     Conventional correlation energy:    -0.3108989649550864

       Iteration no.:  4
       -----------------

       Time used in   RHS - TOTAL  :       0.08 seconds
       Norm^2 of omega1 after ccvec:        0.2578593934D-05
       Norm^2 of omega2 after ccvec:        0.1061242511D-04
 Iter.  4: Coupled cluster CCSD  energy :    -113.0652135273074350
     Conventional correlation energy:    -0.3105224063018284

       Iteration no.:  5
       -----------------

       Time used in   RHS - TOTAL  :       0.08 seconds
       Norm^2 of omega1 after ccvec:        0.1825238953D-06
       Norm^2 of omega2 after ccvec:        0.1318363691D-05
 Iter.  5: Coupled cluster CCSD  energy :    -113.0652736550434270
     Conventional correlation energy:    -0.3105825340378203

       Iteration no.:  6
       -----------------

       Time used in   RHS - TOTAL  :       0.08 seconds
       Norm^2 of omega1 after ccvec:        0.7826621475D-08
       Norm^2 of omega2 after ccvec:        0.5853345307D-07
 Iter.  6: Coupled cluster CCSD  energy :    -113.0652782159011309
     Conventional correlation energy:    -0.3105870948955243

       Iteration no.:  7
       -----------------

       Time used in   RHS - TOTAL  :       0.08 seconds
       Norm^2 of omega1 after ccvec:        0.4030078310D-09
       Norm^2 of omega2 after ccvec:        0.3313064422D-08
 Iter.  7: Coupled cluster CCSD  energy :    -113.0652774036956600
     Conventional correlation energy:    -0.3105862826900534

       Iteration no.:  8
       -----------------

       Time used in   RHS - TOTAL  :       0.08 seconds
       Norm^2 of omega1 after ccvec:        0.6452675138D-10
       Norm^2 of omega2 after ccvec:        0.2939291306D-09
 Iter.  8: Coupled cluster CCSD  energy :    -113.0652773675936089
     Conventional correlation energy:    -0.3105862465880023

       Iteration no.:  9
       -----------------

       Time used in   RHS - TOTAL  :       0.08 seconds
       Norm^2 of omega1 after ccvec:        0.3755785284D-11
       Norm^2 of omega2 after ccvec:        0.2273427686D-10
 Iter.  9: Coupled cluster CCSD  energy :    -113.0652769567692815
     Conventional correlation energy:    -0.3105858357636748

       Iteration no.: 10
       -----------------

       Time used in   RHS - TOTAL  :       0.09 seconds
       Norm^2 of omega1 after ccvec:        0.5259078677D-12
       Norm^2 of omega2 after ccvec:        0.4170922517D-11
 Iter. 10: Coupled cluster CCSD  energy :    -113.0652770527062501
     Conventional correlation energy:    -0.3105859317006434

       Iteration no.: 11
       -----------------

       Time used in   RHS - TOTAL  :       0.08 seconds
       Norm^2 of omega1 after ccvec:        0.1682693792D-12
       Norm^2 of omega2 after ccvec:        0.7577928063D-12
 Iter. 11: Coupled cluster CCSD  energy :    -113.0652769831071112
     Conventional correlation energy:    -0.3105858621015045

       Iteration no.: 12
       -----------------

       Time used in   RHS - TOTAL  :       0.08 seconds
       Norm^2 of omega1 after ccvec:        0.2707819184D-14
       Norm^2 of omega2 after ccvec:        0.2647256538D-13
 Iter. 12: Coupled cluster CCSD  energy :    -113.0652769836450204
     Conventional correlation energy:    -0.3105858626394138

       Iteration no.: 13
       -----------------

       Time used in   RHS - TOTAL  :       0.08 seconds
       Norm^2 of omega1 after ccvec:        0.2137941870D-15
       Norm^2 of omega2 after ccvec:        0.2391402182D-14
 Iter. 13: Coupled cluster CCSD  energy :    -113.0652769840178991
     Conventional correlation energy:    -0.3105858630122924

       Iteration no.: 14
       -----------------

       Time used in   RHS - TOTAL  :       0.08 seconds
       Norm^2 of omega1 after ccvec:        0.1782310569D-16
       Norm^2 of omega2 after ccvec:        0.1630755461D-15
 Iter. 14: Coupled cluster CCSD  energy :    -113.0652769835980109
     Conventional correlation energy:    -0.3105858625924043

       Iteration no.: 15
       -----------------

       Time used in   RHS - TOTAL  :       0.08 seconds
       Norm^2 of omega1 after ccvec:        0.2522074853D-17
       Norm^2 of omega2 after ccvec:        0.9016388488D-17
 Iter. 15: Coupled cluster CCSD  energy :    -113.0652769835632938
     Conventional correlation energy:    -0.3105858625576872

 CCSD  energy converged to within   0.10D-09 is         -113.065276983563
 Final 2-norm of the CC vector function:  3.39683137D-09


                    +------------------------------------------+
                    ! Largest amplitudes in converged solution !
                    +------------------------------------------+



          CC_PRAM:Overall Contribution of the Different Components
          --------------------------------------------------------



          Single Excitation Contribution :               6.2003 %

          Double Excitation Contribution :              93.7997 %

          ||T1||/||T2||                  :               0.2571

          Tau1 diagnostic                :               0.0161

          Norm of Total Amplitude Vector :               0.2417


 +=============================================================================+
 | symmetry|  orbital index  |   Excitation Numbers             |   Amplitude  |
 |  Index  |   a   b   i   j |      NAI      NBJ |     NAIBJ    |              |
 +=============================================================================+
 | 1   1   |   6       4     |       57          |              |    0.007153  |
 | 1   1   |   1       5     |       69          |              |   -0.010526  |
 | 1   1   |   4       5     |       72          |              |   -0.011226  |
 | 2   2   |   1       1     |       86          |              |    0.017058  |
 | 2   2   |   2       1     |       87          |              |   -0.030262  |
 | 2   2   |   3       1     |       88          |              |   -0.007581  |
 | 2   2   |   5       1     |       90          |              |   -0.010797  |
 | 2   2   |   7       1     |       92          |              |    0.012125  |
 | 3   3   |   1       1     |       95          |              |    0.017058  |
 | 3   3   |   2       1     |       96          |              |   -0.030262  |
 | 3   3   |   3       1     |       97          |              |   -0.007581  |
 | 3   3   |   5       1     |       99          |              |   -0.010797  |
 | 3   3   |   7       1     |      101          |              |    0.012125  |
 +-----------------------------------------------------------------------------+
 | 1 1 1 1 |  10  10   5   5 |       78       78 |         3081 |   -0.030419  |
 | 2 2 2 2 |   2   1   1   1 |       87       86 |         3827 |    0.027467  |
 | 2 2 2 2 |   2   2   1   1 |       87       87 |         3828 |   -0.044378  |
 | 3 2 3 2 |   2   2   1   1 |       96       87 |         4647 |   -0.029889  |
 | 3 3 3 3 |   2   1   1   1 |       96       95 |         4655 |    0.027467  |
 | 3 3 3 3 |   2   2   1   1 |       96       96 |         4656 |   -0.044378  |
 | 2 2 1 1 |   2   1   5   5 |       38       37 |         6096 |    0.025389  |
 | 2 2 1 1 |   2   2   5   5 |       38       38 |         6097 |   -0.046161  |
 | 3 3 1 1 |   2   1   5   5 |       38       37 |         8307 |    0.025389  |
 | 3 3 1 1 |   2   2   5   5 |       38       38 |         8308 |   -0.046161  |
 +=============================================================================+


          Norm of Printed Amplitude Vector :             0.1271

          Printed all single excitations greater than 0.006225

          Printed all double excitations greater than 0.024213





             +-------------------------------------------------------+
             ! Final results from the Coupled Cluster energy program !
             +-------------------------------------------------------+



            Total SCF   energy:                  -112.7546911210

            Total RSTAR energy:                  -113.0587392088

            Total CCSD  energy:                  -113.0652769836




                   +--------------------------------------------+
                   ! Calculating singlet intermediates for CCLR !
                   +--------------------------------------------+



       Time used in   RHS - TOTAL  :       0.08 seconds


            E-intermediates calculated 
            Fock-intermediate calculated 
            Gamma-intermediate calculated 
            BF-intermediate calculated 
            C-intermediate calculated 
            D-intermediate calculated 


   

 *******************************************************************
 *                                                                 *
 *<<<<<<<<<<<<< OUTPUT FROM COUPLED CLUSTER RESPONSE  >>>>>>>>>>>>>*
 *                                                                 *
 *<<<<<<<<<<    CALCULATION OF FIRST ORDER PROPERTIES    >>>>>>>>>>*
 *                                                                 *
 *******************************************************************



                         +--------------------------------+
                         ! Coupled Cluster model is: CCSD !
                         +--------------------------------+


 Solving   1 response equations:
 L0 :
 RPA: call cceq_str
 Vector nr.  1 of symmetry  1 found on file - RESTART SUCCESS
 Start vector is a MP2       L0  vector
 RPA: exit cceq_str
 CCEQ_SOL: IPRLE   =               4
 CCEQ_SOL: TRIPLET =     F
 CCEQ_SOL: LINQCC  =     T
 CCEQ_SOL: NREDH   =               1
 CCEQ_SOL: MAXRED  =             200
 CCEQ_SOL: MAXLE   =              40
 CCEQ_SOL: ISIDE   =              -1
 CCEQ_SOL: ISTRVE  =               1
 CCEQ_SOL: NVEC    =               1
 CCEQ_SOL: NUPVEC  =               1
 CCEQ_SOL: NCCVAR  =           10622



 >>>>> COUPLED CLUSTER RESPONSE SOLVER <<<<<

    Iter  #Vectors  time (min)   residual
    --------------------------------------
  
 Time used in CC_LHTR :   7.4999928474426270E-002
  
  
 ROOT:  1 RESIDUAL TOT: 5.39401D-01
      1       1         0.00     0.54E+00
 Dimension of the reduced space:     2
 >>> TIME USED IN THIS MICRO ITERATION        0.08

  
 Time used in CC_LHTR :   7.7000021934509277E-002
  
  
 ROOT:  1 RESIDUAL TOT: 1.52647D-01
      2       1         0.00     0.15E+00
 Dimension of the reduced space:     3
 >>> TIME USED IN THIS MICRO ITERATION        0.08

  
 Time used in CC_LHTR :   7.5999975204467773E-002
  
  
 ROOT:  1 RESIDUAL TOT: 4.00449D-02
      3       1         0.00     0.40E-01
 Dimension of the reduced space:     4
 >>> TIME USED IN THIS MICRO ITERATION        0.08

  
 Time used in CC_LHTR :   7.5999975204467773E-002
  
  
 ROOT:  1 RESIDUAL TOT: 1.24522D-02
      4       1         0.00     0.12E-01
 Dimension of the reduced space:     5
 >>> TIME USED IN THIS MICRO ITERATION        0.08

  
 Time used in CC_LHTR :   7.5999975204467773E-002
  
  
 ROOT:  1 RESIDUAL TOT: 3.31597D-03
      5       1         0.00     0.33E-02
 Dimension of the reduced space:     6
 >>> TIME USED IN THIS MICRO ITERATION        0.08

  
 Time used in CC_LHTR :   7.7000021934509277E-002
  
  
 ROOT:  1 RESIDUAL TOT: 9.10830D-04
      6       1         0.00     0.91E-03
 Dimension of the reduced space:     7
 >>> TIME USED IN THIS MICRO ITERATION        0.08

  
 Time used in CC_LHTR :   7.6000213623046875E-002
  
  
 ROOT:  1 RESIDUAL TOT: 2.35459D-04
      7       1         0.00     0.24E-03
 Dimension of the reduced space:     8
 >>> TIME USED IN THIS MICRO ITERATION        0.08

  
 Time used in CC_LHTR :   7.2999954223632813E-002
  
  
 ROOT:  1 RESIDUAL TOT: 6.63578D-05
      8       1         0.00     0.66E-04
 Dimension of the reduced space:     9
 >>> TIME USED IN THIS MICRO ITERATION        0.08

  
 Time used in CC_LHTR :   7.7999830245971680E-002
  
  
 ROOT:  1 RESIDUAL TOT: 1.86031D-05
      9       1         0.00     0.19E-04
 Dimension of the reduced space:    10
 >>> TIME USED IN THIS MICRO ITERATION        0.08

  
 Time used in CC_LHTR :   7.5999975204467773E-002
  
  
[...]
 | 2 1 2 1 |   6  11   1   4 |       91       62 |         4157 |    0.028068  |
 | 2 1 2 1 |   7  11   1   4 |       92       62 |         4248 |    0.036404  |
 | 2 1 2 1 |   2   4   1   5 |       87       72 |         3813 |    0.028212  |
 | 2 1 2 1 |   2   8   1   5 |       87       76 |         3817 |   -0.027520  |
 | 2 1 2 1 |   2  10   1   5 |       87       78 |         3819 |   -0.046239  |
 | 2 1 2 1 |   5  10   1   5 |       90       78 |         4083 |   -0.026302  |
 | 3 1 3 1 |   2   8   1   3 |       96       42 |         4602 |    0.032109  |
 | 3 1 3 1 |   2   6   1   4 |       96       57 |         4617 |    0.025585  |
 | 3 1 3 1 |   2   8   1   4 |       96       59 |         4619 |    0.042911  |
 | 3 1 3 1 |   5   8   1   4 |       99       59 |         4910 |    0.030656  |
 | 3 1 3 1 |   2  11   1   4 |       96       62 |         4622 |    0.026948  |
 | 3 1 3 1 |   3  11   1   4 |       97       62 |         4718 |    0.028716  |
 | 3 1 3 1 |   6  11   1   4 |      100       62 |         5012 |    0.028068  |
 | 3 1 3 1 |   7  11   1   4 |      101       62 |         5112 |    0.036404  |
 | 3 1 3 1 |   2   4   1   5 |       96       72 |         4632 |    0.028212  |
 | 3 1 3 1 |   2   8   1   5 |       96       76 |         4636 |   -0.027520  |
 | 3 1 3 1 |   2  10   1   5 |       96       78 |         4638 |   -0.046239  |
 | 3 1 3 1 |   5  10   1   5 |       99       78 |         4929 |   -0.026302  |
 | 2 2 2 2 |   1   1   1   1 |       86       86 |         3741 |   -0.037180  |
 | 2 2 2 2 |   2   1   1   1 |       87       86 |         3827 |    0.051010  |
 | 2 2 2 2 |   3   1   1   1 |       88       86 |         3914 |    0.033863  |
 | 2 2 2 2 |   2   2   1   1 |       87       87 |         3828 |   -0.082181  |
 | 2 2 2 2 |   3   2   1   1 |       88       87 |         3915 |   -0.041707  |
 | 2 2 2 2 |   4   2   1   1 |       89       87 |         4003 |   -0.034574  |
 | 2 2 2 2 |   7   2   1   1 |       92       87 |         4273 |   -0.025566  |
 | 2 2 2 2 |   3   3   1   1 |       88       88 |         3916 |   -0.033975  |
 | 2 2 2 2 |   7   7   1   1 |       92       92 |         4278 |   -0.035866  |
 | 3 2 3 2 |   1   1   1   1 |       95       86 |         4551 |   -0.041282  |
 | 3 2 3 2 |   2   1   1   1 |       96       86 |         4646 |    0.055180  |
 | 3 2 3 2 |   3   1   1   1 |       97       86 |         4742 |    0.037575  |
 | 3 2 3 2 |   1   2   1   1 |       95       87 |         4552 |    0.055180  |
 | 3 2 3 2 |   2   2   1   1 |       96       87 |         4647 |   -0.092415  |
 | 3 2 3 2 |   3   2   1   1 |       97       87 |         4743 |   -0.043271  |
 | 3 2 3 2 |   4   2   1   1 |       98       87 |         4840 |   -0.036714  |
 | 3 2 3 2 |   5   2   1   1 |       99       87 |         4938 |   -0.028924  |
 | 3 2 3 2 |   7   2   1   1 |      101       87 |         5137 |   -0.027785  |
 | 3 2 3 2 |   1   3   1   1 |       95       88 |         4553 |    0.037575  |
 | 3 2 3 2 |   2   3   1   1 |       96       88 |         4648 |   -0.043271  |
 | 3 2 3 2 |   3   3   1   1 |       97       88 |         4744 |   -0.038554  |
 | 3 2 3 2 |   7   3   1   1 |      101       88 |         5138 |   -0.025878  |
 | 3 2 3 2 |   2   4   1   1 |       96       89 |         4649 |   -0.036714  |
 | 3 2 3 2 |   2   5   1   1 |       96       90 |         4650 |   -0.028924  |
 | 3 2 3 2 |   5   5   1   1 |       99       90 |         4941 |   -0.027344  |
 | 3 2 3 2 |   6   6   1   1 |      100       91 |         5041 |   -0.030818  |
 | 3 2 3 2 |   2   7   1   1 |       96       92 |         4652 |   -0.027785  |
 | 3 2 3 2 |   3   7   1   1 |       97       92 |         4748 |   -0.025878  |
 | 3 2 3 2 |   7   7   1   1 |      101       92 |         5142 |   -0.040725  |
 | 3 3 3 3 |   1   1   1   1 |       95       95 |         4560 |   -0.037180  |
 | 3 3 3 3 |   2   1   1   1 |       96       95 |         4655 |    0.051010  |
 | 3 3 3 3 |   3   1   1   1 |       97       95 |         4751 |    0.033863  |
 | 3 3 3 3 |   2   2   1   1 |       96       96 |         4656 |   -0.082181  |
 | 3 3 3 3 |   3   2   1   1 |       97       96 |         4752 |   -0.041707  |
 | 3 3 3 3 |   4   2   1   1 |       98       96 |         4849 |   -0.034574  |
 | 3 3 3 3 |   7   2   1   1 |      101       96 |         5146 |   -0.025566  |
 | 3 3 3 3 |   3   3   1   1 |       97       97 |         4753 |   -0.033975  |
 | 3 3 3 3 |   7   7   1   1 |      101      101 |         5151 |   -0.035866  |
 | 2 2 1 1 |   2   2   4   4 |       29       29 |         5791 |   -0.031499  |
 | 2 2 1 1 |   2   2   5   4 |       38       29 |         6088 |   -0.032042  |
 | 2 2 1 1 |   1   1   5   5 |       37       37 |         6059 |   -0.028614  |
 | 2 2 1 1 |   2   1   5   5 |       38       37 |         6096 |    0.048695  |
 | 2 2 1 1 |   2   2   5   5 |       38       38 |         6097 |   -0.088512  |
 | 2 2 1 1 |   3   2   5   5 |       39       38 |         6135 |   -0.028048  |
 | 2 2 1 1 |   8   2   5   5 |       44       38 |         6340 |    0.027255  |
 | 1 2 2 1 |   9   2   1   4 |       54       29 |         6816 |   -0.026123  |
 | 1 2 2 1 |   6   2   1   5 |       51       38 |         6669 |    0.025284  |
 | 1 2 2 1 |  10   2   1   5 |       55       38 |         6879 |    0.025803  |
 | 4 2 3 1 |   2   2   1   4 |       64       29 |         7401 |   -0.026123  |
 | 4 1 3 2 |   2   9   1   1 |       64       54 |         7426 |   -0.031601  |
 | 3 3 1 1 |   2   2   4   4 |       29       29 |         8002 |   -0.031499  |
 | 3 3 1 1 |   2   2   5   4 |       38       29 |         8299 |   -0.032042  |
 | 3 3 1 1 |   1   1   5   5 |       37       37 |         8270 |   -0.028614  |
 | 3 3 1 1 |   2   1   5   5 |       38       37 |         8307 |    0.048695  |
 | 3 3 1 1 |   2   2   5   5 |       38       38 |         8308 |   -0.088512  |
 | 3 3 1 1 |   3   2   5   5 |       39       38 |         8346 |   -0.028048  |
 | 3 3 1 1 |   8   2   5   5 |       44       38 |         8551 |    0.027255  |
 | 4 3 2 1 |   2   2   1   4 |       47       29 |         8677 |   -0.026123  |
 | 1 3 3 1 |   9   2   1   4 |       58       29 |         9249 |    0.026123  |
 | 1 3 3 1 |   6   2   1   5 |       55       38 |         9090 |    0.025284  |
 | 1 3 3 1 |  10   2   1   5 |       59       38 |         9316 |    0.025803  |
 | 1 4 3 2 |   9   2   1   1 |       58       47 |         9267 |    0.031601  |
 +=============================================================================+


          Norm of Printed Amplitude Vector :             0.3798

          Printed all single excitations greater than 0.015761

          Printed all double excitations greater than 0.024800
            Norm of singles part:        0.7358999907E-01
            Norm of doubles part:        0.5789681483E+00


                  Constructing right-hand-side for CCSD-kappa-0
                  ---------------------------------------------

  
 Requested density dependent quantities calculated
 Total time used in CC_DEN:  0.32399988174438477     
 CC_FOP> Norm of RHS vector:   1.1141975080903974E-003


                      Solving for orbital relaxation vector
                      -------------------------------------



  THIS IS OUTPUT FROM THE MCSCF AND SOPPA RESPONSE SOLVER
 ---------------------------------------------------------


 Symmetry of singlet property operator     1
 Number of operators for singlet linear response equations:     1
 Number of response frequencies:     1
 Convergence threshold:     1.00D-07

 Integral transformation: Total CPU and WALL times (sec)       0.031       0.032


 >>>>>>>>>> Symmetry of excitation/property operator    1

 Number of operators for linear response equations:     1
 Number of response frequencies:     1


 Perturbation symmetry.     KSYMOP:       1
 Perturbation spin symmetry.TRPLET:       F
 Orbital variables.         KZWOPT:     103
 Configuration variables.   KZCONF:       0
 Total number of variables. KZVAR :     103


 RSPLLE -- linear response calculation for symmetry  1
 RSPLLE -- operator no.  1 out of  1
 RSPLLE -- frequencies :  0.000000



 <<<  SOLVING SETS OF LINEAR EQUATIONS FOR LINEAR RESPONSE PROPERTIES >>>

 Operator symmetry =  1; triplet =   F


 *** THE REQUESTED    1 SOLUTION VECTORS CONVERGED

 Convergence of RSP solution vectors, threshold = 1.00D-07
 ---------------------------------------------------------------
 (dimension of paired reduced space:   20)
 RSP solution vector no.    1; norm of residual   4.43D-08

 *** RSPCTL MICROITERATIONS CONVERGED

 EIGENVECTOR NUMBER     1

     Orbital operator symmetry = 1
     (only elements abs greater than   10.00 % of max abs value)

      Index(r,s)      r      s        (r s) operator      (s r) operator
      ----------    -----  -----      --------------      --------------
          38         3(1)   9(1)       -0.0008560325        0.0008560325
          52         4(1)   6(1)        0.0011032617       -0.0011032617
          55         4(1)   9(1)        0.0007853323       -0.0007853323
          57         4(1)  11(1)        0.0012600983       -0.0012600983
          59         4(1)  13(1)        0.0009091020       -0.0009091020
          64         4(1)  18(1)       -0.0007914946        0.0007914946
          86        23(2)  24(2)        0.0040707230       -0.0040707230
          87        23(2)  25(2)       -0.0068623223        0.0068623223
          88        23(2)  26(2)       -0.0017389688        0.0017389688
          90        23(2)  28(2)       -0.0020147635        0.0020147635
          92        23(2)  30(2)        0.0025550517       -0.0025550517
          95        33(3)  34(3)        0.0040707230       -0.0040707230
          96        33(3)  35(3)       -0.0068623223        0.0068623223
          97        33(3)  36(3)       -0.0017389688        0.0017389688
          99        33(3)  38(3)       -0.0020147635        0.0020147635
         101        33(3)  40(3)        0.0025550517       -0.0025550517

       87 elements with absolute value less than 6.86D-04 not printed.

 The numbers in parenthesis give the orbital symmetry.

     Configuration operator symmetry = 1
     >> NO ELEMENTS <<


 Time used in linear response calculation is      0.01 CPU seconds for symmetry 1

 >>> Total time used in response solver is         0.04 CPU seconds.

   Equations converged to residual less than:  0.000000
  
 Norm of zeta-kappa-0:   3.3119502850224917E-004
 CCFOP: call CC_D1AO to recalc the 1e Density


                            +--------------------------+
                            ! CCSD Natural Occupations !
                            +--------------------------+

  
   Symmetry block number:  1
   ---------------------
  
   1.99991648   1.99985230   1.98428588   1.96928711   1.94492209
   0.02134018   0.01309211   0.00847847   0.00644109   0.00601068
   0.00221963   0.00186397   0.00092130   0.00033321   0.00031423
   0.00023436   0.00014741   0.00011982   0.00006438   0.00004444
   0.00000273   0.00000140
  
   Sum in this symmetry class:   9.959893
  
   Symmetry block number:  2
   ---------------------
  
   1.94532197   0.05444310   0.00740849   0.00611251   0.00154977
   0.00063525   0.00027189   0.00015290   0.00002850   0.00000234
  
   Sum in this symmetry class:   2.015927
  
   Symmetry block number:  3
   ---------------------
  
   1.94532197   0.05444310   0.00740849   0.00611251   0.00154977
   0.00063525   0.00027189   0.00015290   0.00002850   0.00000234
  
   Sum in this symmetry class:   2.015927
  
   Symmetry block number:  4
   ---------------------
  
   0.00601068   0.00186397   0.00031423   0.00006438
  
   Sum in this symmetry class:   0.008253
  
  
   Total Sum of natural occupation numbers:  14.000000
  
   Dynamical correlation move: 0.211092 electrons
  


             +--------------------------------------------------------+
             !   Relaxed CCSD    First-order one-electron properties: !
             +--------------------------------------------------------+



                            +-------------------------+
                            !  Electric Dipole Moment !
                            +-------------------------+



                          Total Molecular Dipole Moment
                          -----------------------------

                 au               Debye          C m (/(10**-30)

      z     -0.03818791        -0.09706398        -0.32377059




                          +-----------------------------+
                          !  Electric Quadrupole Moment !
                          +-----------------------------+



                        Total Molecular quadrupole moment
                        ---------------------------------

                    X              Y              Z

               Column   1     Column   2     Column   3
       1       0.76738648     0.00000000     0.00000000
       2       0.00000000     0.76738648     0.00000000
       3       0.00000000     0.00000000    -1.53477296
    ==== End of matrix output ====


                      +-------------------------------------+
                      !  Electronic second moment of charge !
                      +-------------------------------------+

                    X              Y              Z

               Column   1     Column   2     Column   3
       1       7.72406703     0.00000000     0.00000000
       2       0.00000000     7.72406703     0.00000000
       3       0.00000000     0.00000000    24.84631255
    ==== End of matrix output ====

 Alfa**2 Invariant:                        180.404714
 Beta**2 Invariant:                        293.171292

 Isotropic Property:                        13.431482 a.u.
 Property anisotropy invariant:             17.122246 a.u.


                           +---------------------------+
                           !  Electric Field Gradients !
                           +---------------------------+



      *********************************************************************
      **************** ABACUS - Nuclear Quadrupole moments ****************
      *********************************************************************


Total non-diagonalized EFG Tensor   C     

               Column   1     Column   2     Column   3
       1       0.42275148     0.00000000     0.00000000
       2       0.00000000     0.42275148     0.00000000
       3       0.00000000     0.00000000    -0.84550296
    ==== End of matrix output ====

Total non-diagonalized EFG Tensor   O     

               Column   1     Column   2     Column   3
       1       0.27473906     0.00000000     0.00000000
       2       0.00000000     0.27473906     0.00000000
       3       0.00000000     0.00000000    -0.54947812
    ==== End of matrix output ====
 String on input: "C       "
 String on input: "C       "
 String on input: "O       "
 String on input: "O       "

EFG Principal axis                  C     

               Column   1     Column   2     Column   3
       1       1.00000000     0.00000000     0.00000000
       2       0.00000000     1.00000000     0.00000000
       3       0.00000000     0.00000000     1.00000000
    ==== End of matrix output ====

EFG Principal axis                  O     

               Column   1     Column   2     Column   3
       1       1.00000000     0.00000000     0.00000000
       2       0.00000000     1.00000000     0.00000000
       3       0.00000000     0.00000000     1.00000000
    ==== End of matrix output ====


                         Nuclear quadrupole moment for C
                         -------------------------------



                         Nuclear quadrupole moment for O
                         -------------------------------

          Spin     :  2.5          Quadrupole moment:-.02558000
                            au           MHz        Gauss
 O      17    Vx =       0.274739    -1.651291    -0.589905
 O      17    Vy =       0.274739    -1.651291    -0.589905
 O      17    Vz =      -0.549478     3.302583     1.179810
                 Asymmetry constant eta:      0.000000
                 Auxiliary value au  1/T  0.474147D-05


           +------------------------------------------------------------+
           !  Pauli relativistic corrections to the ground-state energy !
           +------------------------------------------------------------+

  
         1-elec. Darwin term:      0.260465400
         ------------------- 
  
         Mass-Velocity term:      -0.327136229
         ------------------  
  
         Mass-Velocity + 1-elec. Darwin terms:      -0.066670829
         ------------------------------------ 

 *******************************************************************

 Ground state energy is target 

 Ecorr =                   -113.06527698356329381113

 *******************************************************************
  

 *******************************************************************************
 *******************************************************************************
 *                                                                             *
 *                                                                             *
 *                   SUMMARY OF COUPLED CLUSTER CALCULATION                    *
 *                                                                             *
 *                                                                             *
 *******************************************************************************
 *******************************************************************************

                                                                                
            Total SCF   energy:                  -112.7546911210                
                                                                                
                                                                                
            Total SCF   energy:                  -112.7546911210                
            Total MP2   energy:                  -113.0587392088                
                                                                                
                                                                                
            Total SCF   energy:                  -112.7546911210                
            Total RSTAR energy:                  -113.0587392088                
            Total CCSD  energy:                  -113.0652769836                
  

 *******************************************************************************
 *******************************************************************************
 *                                                                             *
 *                                                                             *
 *                      END OF COUPLED CLUSTER CALCULATION                     *
 *                                                                             *
 *                                                                             *
 *******************************************************************************
 *******************************************************************************


 >>>> CPU and wall time for CC :       2.917       2.991

 
     Date and time (Linux)  : Sun Sep  8 20:42:24 2013
     Host name              : lpqlx131.ups-tlse.fr                    


                      .-------------------------------------.
                      | End of Coupled Cluster Section (CC) |
                      `-------------------------------------'

 >>>> Total CPU  time used in DALTON:   3.07 seconds
 >>>> Total wall time used in DALTON:   3.15 seconds

 
     Date and time (Linux)  : Sun Sep  8 20:42:24 2013
     Host name              : lpqlx131.ups-tlse.fr                    
