

     ************************************************************************
     *************** Dalton - An Electronic Structure Program ***************
     ************************************************************************

    This is output from DALTON (Release Dalton2013 patch 0)
   ----------------------------------------------------------------------------
    NOTE:
     
    Dalton is an experimental code for the evaluation of molecular
    properties using (MC)SCF, DFT, CI, and CC wave functions.
    The authors accept no responsibility for the performance of
    the code or for the correctness of the results.
     
    The code (in whole or part) is provided under a licence and
    is not to be reproduced for further distribution without
    the written permission of the authors or their representatives.
     
    See the home page "http://daltonprogram.org" for further information.
     
    If results obtained with this code are published,
    the appropriate citations would be both of:
     
       K. Aidas, C. Angeli, K. L. Bak, V. Bakken, R. Bast,
       L. Boman, O. Christiansen, R. Cimiraglia, S. Coriani,
       P. Dahle, E. K. Dalskov, U. Ekstroem, T. Enevoldsen,
       J. J. Eriksen, P. Ettenhuber, B. Fernandez, L. Ferrighi,
       H. Fliegl, L. Frediani, K. Hald, A. Halkier, C. Haettig,
       H. Heiberg, T. Helgaker, A. C. Hennum, H. Hettema,
       E. Hjertenaes, S. Hoest, I.-M. Hoeyvik, M. F. Iozzi,
       B. Jansik, H. J. Aa. Jensen, D. Jonsson, P. Joergensen,
       J. Kauczor, S. Kirpekar, T. Kjaergaard, W. Klopper,
       S. Knecht, R. Kobayashi, H. Koch, J. Kongsted, A. Krapp,
       K. Kristensen, A. Ligabue, O. B. Lutnaes, J. I. Melo,
       K. V. Mikkelsen, R. H. Myhre, C. Neiss, C. B. Nielsen,
       P. Norman, J. Olsen, J. M. H. Olsen, A. Osted,
       M. J. Packer, F. Pawlowski, T. B. Pedersen, P. F. Provasi,
       S. Reine, Z. Rinkevicius, T. A. Ruden, K. Ruud, V. Rybkin,
       P. Salek, C. C. M. Samson, A. Sanchez de Meras, T. Saue,
       S. P. A. Sauer, B. Schimmelpfennig, K. Sneskov,
       A. H. Steindal, K. O. Sylvester-Hvid, P. R. Taylor,
       A. M. Teale, E. I. Tellgren, D. P. Tew, A. J. Thorvaldsen,
       L. Thoegersen, O. Vahtras, M. A. Watson, D. J. D. Wilson,
       M. Ziolkowski and H. Agren.
       The Dalton quantum chemistry program system.
       WIREs Comput. Mol. Sci. 2013. doi: 10.1002/wcms.1172
    
    and
    
       Dalton, a Molecular Electronic Structure Program,
       Release DALTON2013.0 (2013), see http://daltonprogram.org
   ----------------------------------------------------------------------------

    Authors in alphabetical order (major contribution(s) in parenthesis):

  Kestutis Aidas,           Vilnius University,           Lithuania   (QM/MM)
  Celestino Angeli,         University of Ferrara,        Italy       (NEVPT2)
  Keld L. Bak,              UNI-C,                        Denmark     (AOSOPPA, non-adiabatic coupling, magnetic properties)
  Vebjoern Bakken,          University of Oslo,           Norway      (DALTON; geometry optimizer, symmetry detection)
  Radovan Bast,             KTH Stockholm                 Sweden      (DALTON installation and execution frameworks)
  Linus Boman,              NTNU,                         Norway      (Cholesky decomposition and subsystems)
  Ove Christiansen,         Aarhus University,            Denmark     (CC module)
  Renzo Cimiraglia,         University of Ferrara,        Italy       (NEVPT2)
  Sonia Coriani,            University of Trieste,        Italy       (CC module, MCD in RESPONS)
  Paal Dahle,               University of Oslo,           Norway      (Parallelization)
  Erik K. Dalskov,          UNI-C,                        Denmark     (SOPPA)
  Thomas Enevoldsen,        Univ. of Southern Denmark,    Denmark     (SOPPA)
  Janus J. Eriksen,         Aarhus University,            Denmark     (PE-MP2/SOPPA, TDA)
  Berta Fernandez,          U. of Santiago de Compostela, Spain       (doublet spin, ESR in RESPONS)
  Lara Ferrighi,            Aarhus University,            Denmark     (PCM Cubic response)
  Heike Fliegl,             University of Oslo,           Norway      (CCSD(R12))
  Luca Frediani,            UiT The Arctic U. of Norway,  Norway      (PCM)
  Bin Gao,                  UiT The Arctic U. of Norway,  Norway      (Gen1Int library)
  Christof Haettig,         Ruhr-University Bochum,       Germany     (CC module)
  Kasper Hald,              Aarhus University,            Denmark     (CC module)
  Asger Halkier,            Aarhus University,            Denmark     (CC module)
  Hanne Heiberg,            University of Oslo,           Norway      (geometry analysis, selected one-electron integrals)
  Trygve Helgaker,          University of Oslo,           Norway      (DALTON; ABACUS, ERI, DFT modules, London, and much more)
  Alf Christian Hennum,     University of Oslo,           Norway      (Parity violation)
  Hinne Hettema,            University of Auckland,       New Zealand (quadratic response in RESPONS; SIRIUS supersymmetry)
  Eirik Hjertenaes,         NTNU,                         Norway      (Cholesky decomposition)
  Maria Francesca Iozzi,    University of Oslo,           Norway      (RPA)
  Brano Jansik              Technical Univ. of Ostrava    Czech Rep.  (DFT cubic response)
  Hans Joergen Aa. Jensen,  Univ. of Southern Denmark,    Denmark     (DALTON; SIRIUS, RESPONS, ABACUS modules, London, and much more)
  Dan Jonsson,              UiT The Arctic U. of Norway,  Norway      (cubic response in RESPONS module)
  Poul Joergensen,          Aarhus University,            Denmark     (RESPONS, ABACUS, and CC modules)
  Joanna Kauczor,           Linkoeping University,        Sweden      (Complex polarization propagator (CPP) module)
  Sheela Kirpekar,          Univ. of Southern Denmark,    Denmark     (Mass-velocity & Darwin integrals)
  Wim Klopper,              KIT Karlsruhe,                Germany     (R12 code in CC, SIRIUS, and ABACUS modules)
  Stefan Knecht,            ETH Zurich,                   Switzerland (Parallel CI and MCSCF)
  Rika Kobayashi,           Australian National Univ.,    Australia   (DIIS in CC, London in MCSCF)
  Henrik Koch,              NTNU,                         Norway      (CC module, Cholesky decomposition)
  Jacob Kongsted,           Univ. of Southern Denmark,    Denmark     (Polarizable embedding, QM/MM)
  Andrea Ligabue,           University of Modena,         Italy       (CTOCD, AOSOPPA)
  Ola B. Lutnaes,           University of Oslo,           Norway      (DFT Hessian)
  Juan I. Melo,             University of Buenos Aires,   Argentina   (LRESC, Relativistic Effects on NMR Shieldings)
  Kurt V. Mikkelsen,        University of Copenhagen,     Denmark     (MC-SCRF and QM/MM)
  Rolf H. Myhre,            NTNU,                         Norway      (Cholesky, subsystems and ECC2)
  Christian Neiss,          Univ. Erlangen-Nuernberg,     Germany     (CCSD(R12))
  Christian B. Nielsen,     University of Copenhagen,     Denmark     (QM/MM)
  Patrick Norman,           Linkoeping University,        Sweden      (Cubic response and complex response in RESPONS)
  Jeppe Olsen,              Aarhus University,            Denmark     (SIRIUS CI/density modules)
  Jogvan Magnus H. Olsen,   Univ. of Southern Denmark,    Denmark     (Polarizable embedding, PE library, QM/MM)
  Anders Osted,             Copenhagen University,        Denmark     (QM/MM)
  Martin J. Packer,         University of Sheffield,      UK          (SOPPA)
  Filip Pawlowski,          Kazimierz Wielki University   Poland      (CC3)
  Thomas B. Pedersen,       University of Oslo,           Norway      (Cholesky decomposition)
  Patricio F. Provasi,      University of Northeastern,   Argentina   (Analysis of coupling constants in localized orbitals)
  Zilvinas Rinkevicius,     KTH Stockholm,                Sweden      (open-shell DFT, ESR)
  Elias Rudberg,            KTH Stockholm,                Sweden      (DFT grid and basis info)
  Torgeir A. Ruden,         University of Oslo,           Norway      (Numerical derivatives in ABACUS)
  Kenneth Ruud,             UiT The Arctic U. of Norway,  Norway      (DALTON; ABACUS magnetic properties and  much more)
  Pawel Salek,              KTH Stockholm,                Sweden      (DALTON; DFT code)
  Claire C. M. Samson       University of Karlsruhe       Germany     (Boys localization, r12 integrals in ERI)
  Alfredo Sanchez de Meras, University of Valencia,       Spain       (CC module, Cholesky decomposition)
  Trond Saue,               Paul Sabatier University,     France      (direct Fock matrix construction)
  Stephan P. A. Sauer,      University of Copenhagen,     Denmark     (SOPPA(CCSD), SOPPA prop., AOSOPPA, vibrational g-factors)
  Bernd Schimmelpfennig,    Forschungszentrum Karlsruhe,  Germany     (AMFI module)
  Kristian Sneskov,         Aarhus University,            Denmark     (QM/MM, PE-CC)
  Arnfinn H. Steindal,      UiT The Arctic U. of Norway,  Norway      (parallel QM/MM)
  K. O. Sylvester-Hvid,     University of Copenhagen,     Denmark     (MC-SCRF)
  Peter R. Taylor,          VLSCI/Univ. of Melbourne,     Australia   (Symmetry handling ABACUS, integral transformation)
  Andrew M. Teale,          University of Nottingham,     England     (DFT-AC, DFT-D)
  David P. Tew,             University of Bristol,        England     (CCSD(R12))
  Olav Vahtras,             KTH Stockholm,                Sweden      (triplet response, spin-orbit, ESR, TDDFT, open-shell DFT)
  David J. Wilson,          La Trobe University,          Australia   (DFT Hessian and DFT magnetizabilities)
  Hans Agren,               KTH Stockholm,                Sweden      (SIRIUS module, RESPONS, MC-SCRF solvation model)
 --------------------------------------------------------------------------------

     Date and time (Linux)  : Sun Sep  8 20:53:29 2013
     Host name              : lpqlx131.ups-tlse.fr                    

 * Work memory size             :    64000000 =  488.28 megabytes.

 * Directories for basis set searches:
   1) /home/bast/DALTON-2013.0-Source/build/test_dft_lda_nosym
   2) /home/bast/DALTON-2013.0-Source/build/basis


Compilation information
-----------------------

 Who compiled             | bast
 Host                     | lpqlx131.ups-tlse.fr
 System                   | Linux-3.8.5-201.fc18.x86_64
 CMake generator          | Unix Makefiles
 Processor                | x86_64
 64-bit integers          | OFF
 MPI                      | OFF
 Fortran compiler         | /usr/bin/gfortran
 Fortran compiler version | GNU Fortran (GCC) 4.7.2 20121109 (Red Hat 4.7.2-8)
 C compiler               | /usr/bin/gcc
 C compiler version       | gcc (GCC) 4.7.2 20121109 (Red Hat 4.7.2-8)
 C++ compiler             | /usr/bin/g++
 C++ compiler version     | g++ (GCC) 4.7.2 20121109 (Red Hat 4.7.2-8)
 Static linking           | OFF
 Last Git revision        | f34203295a86316e27f9e7b44f9b6769c4a046c0
 Configuration time       | 2013-09-08 20:31:27.952056


   Content of the .dal input file
 ----------------------------------

**DALTON INPUT                                    
.RUN WAVE                                         
**WAVE FUNCTIONS                                  
.DFT                                              
 LDA                                              
**END OF INPUT                                    
                                                  


   Content of the .mol file
 ----------------------------

BASIS                                                                          
aug-cc-pVDZ                                                                    
HCN                                                                            
aug-cc-pVDZ basis                                                              
    3    0                                                                     
        1.    1                                                                
H   0.3   0.0    -1.0                                                          
        7.    1                                                                
N   0.3   0.0     1.5                                                          
        6.    1                                                                
0   0.0   0.0     0.0                                                          
                                                                               


       *******************************************************************
       *********** Output from DALTON general input processing ***********
       *******************************************************************

 --------------------------------------------------------------------------------
   Overall default print level:    0
   Print level for DALTON.STAT:    1

    HERMIT 1- and 2-electron integral sections will be executed
    "Old" integral transformation used (limited to max 255 basis functions)
    Wave function sections will be executed (SIRIUS module)
 --------------------------------------------------------------------------------


   ****************************************************************************
   *************** Output of molecule and basis set information ***************
   ****************************************************************************


    The two title cards from your ".mol" input:
    ------------------------------------------------------------------------
 1: HCN                                                                     
 2: aug-cc-pVDZ basis                                                       
    ------------------------------------------------------------------------

  Atomic type no.    1
  --------------------
  Nuclear charge:   1.00000
  Number of symmetry independent centers:    1
  Number of basis sets to read;    2
  Basis set file used for this atomic type with Z =   1 :
     "/home/bast/DALTON-2013.0-Source/build/basis/aug-cc-pVDZ"

  Atomic type no.    2
  --------------------
  Nuclear charge:   7.00000
  Number of symmetry independent centers:    1
  Number of basis sets to read;    2
  Basis set file used for this atomic type with Z =   7 :
     "/home/bast/DALTON-2013.0-Source/build/basis/aug-cc-pVDZ"

  Atomic type no.    3
  --------------------
  Nuclear charge:   6.00000
  Number of symmetry independent centers:    1
  Number of basis sets to read;    2
  Basis set file used for this atomic type with Z =   6 :
     "/home/bast/DALTON-2013.0-Source/build/basis/aug-cc-pVDZ"


                         SYMGRP: Point group information
                         -------------------------------

Point group: C1 


                                 Isotopic Masses
                                 ---------------

                           H           1.007825
                           N          14.003074
                           0          12.000000

                       Total mass:    27.010899 amu
                       Natural abundance:  98.519 %

 Center-of-mass coordinates (a.u.):    0.166720    0.000000    0.740323


  Atoms and basis sets
  --------------------

  Number of atom types :    3
  Total number of atoms:    3

  Basis set used is "aug-cc-pVDZ" from the basis set library.

  label    atoms   charge   prim   cont     basis
  ----------------------------------------------------------------------
  H           1    1.0000    11     9      [5s2p|3s2p]                                        
  N           1    7.0000    35    23      [10s5p2d|4s3p2d]                                   
  0           1    6.0000    35    23      [10s5p2d|4s3p2d]                                   
  ----------------------------------------------------------------------
  total:      3   14.0000    81    55
  ----------------------------------------------------------------------
  Spherical harmonic basis used.

  Threshold for neglecting AO integrals:  1.00D-12


  Cartesian Coordinates (a.u.)
  ----------------------------

  Total number of coordinates:    9
  H       :     1  x   0.3000000000    2  y   0.0000000000    3  z  -1.0000000000
  N       :     4  x   0.3000000000    5  y   0.0000000000    6  z   1.5000000000
  0       :     7  x   0.0000000000    8  y   0.0000000000    9  z   0.0000000000


   Interatomic separations (in Angstrom):
   --------------------------------------

            H           N           0     
            ------      ------      ------
 H     :    0.000000
 N     :    1.322943    0.000000
 0     :    0.552477    0.809485    0.000000


  Max    interatomic separation is    1.3229 Angstrom (    2.5000 Bohr)
  between atoms    2 and    1, "N     " and "H     ".

  Min HX interatomic separation is    0.5525 Angstrom (    1.0440 Bohr)

  Min YX interatomic separation is    0.8095 Angstrom (    1.5297 Bohr)

WARNING: Number of short HX and YX bond lengths:    1    1
WARNING: If not intentional, maybe your coordinates were in Angstrom,
WARNING: but "Angstrom" was not specified in .mol file


  Bond distances (Angstrom):
  --------------------------

                  atom 1     atom 2       distance
                  ------     ------       --------
  bond distance:  0          H            0.552477
  bond distance:  0          N            0.809485


  Bond angles (degrees):
  ----------------------

                  atom 1     atom 2     atom 3         angle
                  ------     ------     ------         -----
  bond angle:     H          0          N            151.991




 Principal moments of inertia (u*A**2) and principal axes
 --------------------------------------------------------

   IA       0.054514          0.150425    0.000000    0.988621
   IB       5.073048          0.988621    0.000000   -0.150425
   IC       5.127562          0.000000    1.000000    0.000000


 Rotational constants
 --------------------

 The molecule is planar.

               A                   B                   C

        9270612.1001          99620.3831          98561.2610 MHz
          309.234334            3.322978            3.287650 cm-1


@  Nuclear repulsion energy :   36.003216630673 Hartree


                     .---------------------------------------.
                     | Starting in Integral Section (HERMIT) |
                     `---------------------------------------'



    *************************************************************************
    ****************** Output from HERMIT input processing ******************
    *************************************************************************



     ************************************************************************
     ************************** Output from HERINT **************************
     ************************************************************************


 Threshold for neglecting two-electron integrals:  1.00D-12
 Number of two-electron integrals written:      557132 ( 47.0% )
 Megabytes written:                              6.382

 >>>  Time used in TWOINT     is   0.22 seconds
 >>>> Total CPU  time used in HERMIT:   0.25 seconds
 >>>> Total wall time used in HERMIT:   0.25 seconds


                        .----------------------------------.
                        | End of Integral Section (HERMIT) |
                        `----------------------------------'



                   .--------------------------------------------.
                   | Starting in Wave Function Section (SIRIUS) |
                   `--------------------------------------------'


 *** Output from Huckel module :

     Using EWMO model:          T
     Using EHT  model:          F
     Number of Huckel orbitals each symmetry:   11

 EWMO - Energy Weighted Maximum Overlap - is a Huckel type method,
        which normally is better than Extended Huckel Theory.
 Reference: Linderberg and Ohrn, Propagators in Quantum Chemistry (Wiley, 1973)

 Huckel EWMO eigenvalues for symmetry :  1
          -15.691734     -11.407880      -1.656435      -0.892708      -0.726429
           -0.724826      -0.393802      -0.195654      -0.189171      -0.032495
           -0.016266

 **********************************************************************
 *SIRIUS* a direct, restricted step, second order MCSCF program       *
 **********************************************************************

 
     Date and time (Linux)  : Sun Sep  8 20:53:29 2013
     Host name              : lpqlx131.ups-tlse.fr                    

 Title lines from ".mol" input file:
     HCN                                                                     
     aug-cc-pVDZ basis                                                       

 Print level on unit LUPRI =   2 is   0
 Print level on unit LUW4  =   2 is   5

@    Restricted, closed shell Kohn-Sham DFT calculation.

 Initial molecular orbitals are obtained according to
 ".MOSTART EWMO  " input option

     Wave function specification
     ============================
@    For the wave function of type :      >>> KS-DFT <<<
@    Number of closed shell electrons          14
@    Number of electrons in active shells       0
@    Total charge of the molecule               0

@    Spin multiplicity and 2 M_S                1         0
     Total number of symmetries                 1
@    Reference state symmetry                   1
 
     This is a DFT calculation of type: LDA

     Orbital specifications
     ======================
     Abelian symmetry species          All |    1
                                       --- |  ---
@    Occupied SCF orbitals               7 |    7
     Secondary orbitals                 48 |   48
     Total number of orbitals           55 |   55
     Number of basis functions          55 |   55

     Optimization information
     ========================
@    Number of configurations                 1
@    Number of orbital rotations            336
     ------------------------------------------
@    Total number of variables              337

     Maximum number of Fock   iterations      0
     Maximum number of DIIS   iterations     60
     Maximum number of QC-SCF iterations     60
     Threshold for SCF convergence     1.00D-05
 
     This is a DFT calculation of type: LDA


 >>>>> DIIS optimization of Hartree-Fock <<<<<

 C1-DIIS algorithm; max error vectors =   10

 Iter      Total energy        Error norm    Delta(E)  DIIS dim.
 -----------------------------------------------------------------------------
      K-S energy, electrons, error :    -11.910056508293  13.9999999612   -3.88D-08
@  1    -90.4917980875        3.94299D+00   -9.05D+01    1
      Virial theorem: -V/T =      1.959890
@      MULPOP H      -0.04; N      -0.64; 0       0.68; 
 -----------------------------------------------------------------------------
      K-S energy, electrons, error :    -13.056525249699  13.9999999747   -2.53D-08
@  2    -90.8459389405        3.04046D+00   -3.54D-01    2
      Virial theorem: -V/T =      1.898995
@      MULPOP H      -1.76; N       1.21; 0       0.55; 
 -----------------------------------------------------------------------------
      K-S energy, electrons, error :    -12.662686653934  13.9999999715   -2.85D-08
@  3    -91.2779107890        9.99855D-01   -4.32D-01    3
      Virial theorem: -V/T =      1.929559
@      MULPOP H      -1.11; N      -0.25; 0       1.35; 
 -----------------------------------------------------------------------------
      K-S energy, electrons, error :    -12.482070222857  13.9999999704   -2.96D-08
@  4    -91.3097549191        5.52638D-01   -3.18D-02    4
      Virial theorem: -V/T =      1.940799
@      MULPOP H      -1.05; N       0.38; 0       0.67; 
 -----------------------------------------------------------------------------
      K-S energy, electrons, error :    -12.565332469530  13.9999999708   -2.92D-08
@  5    -91.3246938068        2.21098D-02   -1.49D-02    5
      Virial theorem: -V/T =      1.935700
@      MULPOP H      -1.04; N       0.19; 0       0.85; 
 -----------------------------------------------------------------------------
      K-S energy, electrons, error :    -12.560592062344  13.9999999708   -2.92D-08
@  6    -91.3247228423        2.12538D-03   -2.90D-05    6
      Virial theorem: -V/T =      1.935979
@      MULPOP H      -1.05; N       0.19; 0       0.85; 
 -----------------------------------------------------------------------------
      K-S energy, electrons, error :    -12.560669283613  13.9999999708   -2.92D-08
@  7    -91.3247231198        3.03025D-04   -2.78D-07    7
      Virial theorem: -V/T =      1.935974
@      MULPOP H      -1.05; N       0.20; 0       0.85; 
 -----------------------------------------------------------------------------
      K-S energy, electrons, error :    -12.560710433963  13.9999999708   -2.92D-08
@  8    -91.3247231248        9.38927D-05   -4.96D-09    8
      Virial theorem: -V/T =      1.935971
@      MULPOP H      -1.05; N       0.20; 0       0.85; 
 -----------------------------------------------------------------------------
      K-S energy, electrons, error :    -12.560710882025  13.9999999708   -2.92D-08
@  9    -91.3247231253        4.13637D-06   -5.24D-10    9

@ *** DIIS converged in   9 iterations !
@     Converged SCF energy, gradient:    -91.324723125306    4.14D-06
    - total time used in SIRFCK :              0.00 seconds


 *** SCF orbital energy analysis ***

 Only the five lowest virtual orbital energies printed in each symmetry.

 Number of electrons :   14
 Orbital occupations :    7

 Sym       Kohn-Sham orbital energies

  1    -13.83524518    -9.82124318    -0.91709562    -0.66723182    -0.45681562
        -0.44516656    -0.30285444    -0.00334353     0.03293405     0.03698690
         0.04723548     0.07210676

    E(LUMO) :    -0.00334353 au (symmetry 1)
  - E(HOMO) :    -0.30285444 au (symmetry 1)
  ------------------------------------------
    gap     :     0.29951092 au

 >>> Writing SIRIFC interface file <<<

 >>>> CPU and wall time for SCF :       6.155       6.205


                       .-----------------------------------.
                       | >>> Final results from SIRIUS <<< |
                       `-----------------------------------'


@    Spin multiplicity:           1
@    Spatial symmetry:            1
@    Total charge of molecule:    0

@    Final DFT energy:            -91.324723125306                 
@    Nuclear repulsion:            36.003216630673
@    Electronic energy:          -127.327939755978

@    Final gradient norm:           0.000004136374

 
     Date and time (Linux)  : Sun Sep  8 20:53:36 2013
     Host name              : lpqlx131.ups-tlse.fr                    

 (Only coefficients >0.0100 are printed.)

 Molecular orbitals for symmetry species  1
 ------------------------------------------

    Orbital         3        4        5        6        7        8        9
   1 H   :1s    -0.2449   1.0069   0.0000  -0.2030  -0.0870   0.2497   0.1614
   2 H   :1s     1.1853   0.8681   0.0000  -0.5820   0.9979  -1.1227  -0.5090
   3 H   :1s     0.1460   0.2996   0.0000  -0.0923   0.1756  -2.6527   0.8279
   4 H   :2px    0.0120  -0.0370  -0.0000  -0.0104   0.0035  -0.0030   0.0222
   5 H   :2py    0.0000  -0.0000   0.0211   0.0000  -0.0000   0.0000  -0.0000
   6 H   :2pz    0.0087   0.0179   0.0000  -0.0037   0.0086   0.0158   0.0026
   7 H   :2px    0.0305   0.0251   0.0000   0.0382   0.0387   0.0871  -0.1215
   8 H   :2py    0.0000   0.0000  -0.0715  -0.0000   0.0000  -0.0000   0.0000
   9 H   :2pz    0.3597   0.1268   0.0000  -0.1761   0.3074  -0.1688  -0.3234
  10 N   :1s     0.0396   0.0572   0.0000  -0.0033  -0.0127   0.0107  -0.0029
  11 N   :1s    -0.7839  -0.0784   0.0000   0.0747   0.3602   0.1339   0.0180
  12 N   :1s     0.3830   0.5047   0.0000  -0.1269   0.3727   0.0025   0.2893
  13 N   :1s     0.4153   0.5574   0.0000  -0.1405   0.6648  -1.0529   1.0366
  14 N   :2px    0.0855   0.1929  -0.0000   0.6667   0.1766  -0.1163  -0.3813
  15 N   :2py   -0.0000   0.0000  -0.7294  -0.0000  -0.0000  -0.0000  -0.0000
  16 N   :2pz    0.4112   0.0801  -0.0000  -0.1996   0.8250   0.0683   0.0545
  17 N   :2px    0.0161  -0.1950   0.0000  -0.2324  -0.0049  -0.0518  -0.0979
  18 N   :2py    0.0000   0.0000   0.2554  -0.0000   0.0000  -0.0000   0.0000
  19 N   :2pz   -0.5305  -0.2347  -0.0000   0.1963  -0.4386   0.0822   0.0608
  20 N   :2px    0.0163  -0.0331  -0.0000  -0.0339   0.0161  -0.1367  -0.8201
  21 N   :2py    0.0000   0.0000   0.0329  -0.0000   0.0000  -0.0000   0.0000
  22 N   :2pz   -0.1151  -0.0761  -0.0000   0.0350  -0.0831   0.3972  -0.0583
  23 N   :3d2-   0.0000  -0.0000   0.0142   0.0000   0.0000   0.0000  -0.0000
  24 N   :3d1-   0.0000  -0.0000   0.0519   0.0000  -0.0000   0.0000  -0.0000
  25 N   :3d0   -0.0200  -0.0248  -0.0000   0.0236  -0.0318  -0.0027  -0.0013
  26 N   :3d1+  -0.0163  -0.0149   0.0000  -0.0412  -0.0180   0.0007   0.0063
  27 N   :3d2+  -0.0026  -0.0050   0.0000  -0.0118  -0.0025  -0.0001   0.0030
  29 N   :3d1-  -0.0000  -0.0000  -0.0401   0.0000  -0.0000   0.0000  -0.0000
  30 N   :3d0    0.1126   0.0221   0.0000  -0.0435   0.0795  -0.0243  -0.0229
  31 N   :3d1+   0.0136   0.0359  -0.0000   0.0300   0.0103   0.0018   0.0122
  32 N   :3d2+  -0.0038   0.0110  -0.0000   0.0074  -0.0015   0.0044  -0.0012
  33 0   :1s     0.0926  -0.0912  -0.0000   0.0255   0.0407  -0.0171  -0.0052
  34 0   :1s    -0.6183   0.2655   0.0000  -0.1428  -0.3052   0.0934  -0.0419
  35 0   :1s    -1.0397  -1.8074  -0.0000   0.7378  -1.0934   0.8533   0.1616
  36 0   :1s    -0.5514  -0.9699  -0.0000   0.2705  -0.6872   2.9611  -1.7593
  37 0   :2px   -0.1238   0.2219  -0.0000   0.7083  -0.0603   0.0846   0.1104
  38 0   :2py   -0.0000   0.0000  -0.7384  -0.0000  -0.0000   0.0000   0.0000
  39 0   :2pz   -0.4585  -0.7466  -0.0000   0.1540  -0.3233  -0.1134   0.0349
  40 0   :2px   -0.1611  -0.2156  -0.0000  -0.0467  -0.1634   0.1026   0.3876
  41 0   :2py   -0.0000  -0.0000   0.1801   0.0000  -0.0000   0.0000  -0.0000
  42 0   :2pz    0.3657   0.4262   0.0000  -0.1531   0.2683  -0.0554  -0.1888
  43 0   :2px   -0.0483  -0.0396  -0.0000   0.0418  -0.0519   0.3347   1.3812
  44 0   :2py   -0.0000  -0.0000  -0.0206   0.0000  -0.0000   0.0000  -0.0000
  45 0   :2pz    0.0284   0.0395   0.0000  -0.0221   0.0085  -0.2090  -0.2797
  46 0   :3d2-   0.0000  -0.0000  -0.0160  -0.0000  -0.0000   0.0000  -0.0000
  47 0   :3d1-  -0.0000  -0.0000   0.0102   0.0000  -0.0000   0.0000  -0.0000
  48 0   :3d0    0.0298  -0.0523  -0.0000  -0.0130   0.0262   0.0041   0.0069
  49 0   :3d1+  -0.0190  -0.0278   0.0000   0.0016  -0.0126  -0.0111  -0.0229
  50 0   :3d2+  -0.0046   0.0094   0.0000   0.0142  -0.0018   0.0002  -0.0071
  52 0   :3d1-   0.0000   0.0000  -0.0676  -0.0000   0.0000  -0.0000   0.0000
  53 0   :3d0    0.1914  -0.0856  -0.0000  -0.0634   0.1537  -0.0157  -0.1684
  54 0   :3d1+  -0.0058   0.0831   0.0000   0.0472   0.0088   0.0194  -0.0631
  55 0   :3d2+  -0.0144  -0.0087  -0.0000   0.0100  -0.0134  -0.0026   0.0247



 >>>> Total CPU  time used in SIRIUS :      6.17 seconds
 >>>> Total wall time used in SIRIUS :      6.22 seconds

 
     Date and time (Linux)  : Sun Sep  8 20:53:36 2013
     Host name              : lpqlx131.ups-tlse.fr                    


                     .---------------------------------------.
                     | End of Wave Function Section (SIRIUS) |
                     `---------------------------------------'

 >>>> Total CPU  time used in DALTON:   6.43 seconds
 >>>> Total wall time used in DALTON:   6.48 seconds

 
     Date and time (Linux)  : Sun Sep  8 20:53:36 2013
     Host name              : lpqlx131.ups-tlse.fr                    
