

     ************************************************************************
     *************** Dalton - An Electronic Structure Program ***************
     ************************************************************************

    This is output from DALTON (Release Dalton2013 patch 0)
   ----------------------------------------------------------------------------
    NOTE:
     
    Dalton is an experimental code for the evaluation of molecular
    properties using (MC)SCF, DFT, CI, and CC wave functions.
    The authors accept no responsibility for the performance of
    the code or for the correctness of the results.
     
    The code (in whole or part) is provided under a licence and
    is not to be reproduced for further distribution without
    the written permission of the authors or their representatives.
     
    See the home page "http://daltonprogram.org" for further information.
     
    If results obtained with this code are published,
    the appropriate citations would be both of:
     
       K. Aidas, C. Angeli, K. L. Bak, V. Bakken, R. Bast,
       L. Boman, O. Christiansen, R. Cimiraglia, S. Coriani,
       P. Dahle, E. K. Dalskov, U. Ekstroem, T. Enevoldsen,
       J. J. Eriksen, P. Ettenhuber, B. Fernandez, L. Ferrighi,
       H. Fliegl, L. Frediani, K. Hald, A. Halkier, C. Haettig,
       H. Heiberg, T. Helgaker, A. C. Hennum, H. Hettema,
       E. Hjertenaes, S. Hoest, I.-M. Hoeyvik, M. F. Iozzi,
       B. Jansik, H. J. Aa. Jensen, D. Jonsson, P. Joergensen,
       J. Kauczor, S. Kirpekar, T. Kjaergaard, W. Klopper,
       S. Knecht, R. Kobayashi, H. Koch, J. Kongsted, A. Krapp,
       K. Kristensen, A. Ligabue, O. B. Lutnaes, J. I. Melo,
       K. V. Mikkelsen, R. H. Myhre, C. Neiss, C. B. Nielsen,
       P. Norman, J. Olsen, J. M. H. Olsen, A. Osted,
       M. J. Packer, F. Pawlowski, T. B. Pedersen, P. F. Provasi,
       S. Reine, Z. Rinkevicius, T. A. Ruden, K. Ruud, V. Rybkin,
       P. Salek, C. C. M. Samson, A. Sanchez de Meras, T. Saue,
       S. P. A. Sauer, B. Schimmelpfennig, K. Sneskov,
       A. H. Steindal, K. O. Sylvester-Hvid, P. R. Taylor,
       A. M. Teale, E. I. Tellgren, D. P. Tew, A. J. Thorvaldsen,
       L. Thoegersen, O. Vahtras, M. A. Watson, D. J. D. Wilson,
       M. Ziolkowski and H. Agren.
       The Dalton quantum chemistry program system.
       WIREs Comput. Mol. Sci. 2013. doi: 10.1002/wcms.1172
    
    and
    
       Dalton, a Molecular Electronic Structure Program,
       Release DALTON2013.0 (2013), see http://daltonprogram.org
   ----------------------------------------------------------------------------

    Authors in alphabetical order (major contribution(s) in parenthesis):

  Kestutis Aidas,           Vilnius University,           Lithuania   (QM/MM)
  Celestino Angeli,         University of Ferrara,        Italy       (NEVPT2)
  Keld L. Bak,              UNI-C,                        Denmark     (AOSOPPA, non-adiabatic coupling, magnetic properties)
  Vebjoern Bakken,          University of Oslo,           Norway      (DALTON; geometry optimizer, symmetry detection)
  Radovan Bast,             KTH Stockholm                 Sweden      (DALTON installation and execution frameworks)
  Linus Boman,              NTNU,                         Norway      (Cholesky decomposition and subsystems)
  Ove Christiansen,         Aarhus University,            Denmark     (CC module)
  Renzo Cimiraglia,         University of Ferrara,        Italy       (NEVPT2)
  Sonia Coriani,            University of Trieste,        Italy       (CC module, MCD in RESPONS)
  Paal Dahle,               University of Oslo,           Norway      (Parallelization)
  Erik K. Dalskov,          UNI-C,                        Denmark     (SOPPA)
  Thomas Enevoldsen,        Univ. of Southern Denmark,    Denmark     (SOPPA)
  Janus J. Eriksen,         Aarhus University,            Denmark     (PE-MP2/SOPPA, TDA)
  Berta Fernandez,          U. of Santiago de Compostela, Spain       (doublet spin, ESR in RESPONS)
  Lara Ferrighi,            Aarhus University,            Denmark     (PCM Cubic response)
  Heike Fliegl,             University of Oslo,           Norway      (CCSD(R12))
  Luca Frediani,            UiT The Arctic U. of Norway,  Norway      (PCM)
  Bin Gao,                  UiT The Arctic U. of Norway,  Norway      (Gen1Int library)
  Christof Haettig,         Ruhr-University Bochum,       Germany     (CC module)
  Kasper Hald,              Aarhus University,            Denmark     (CC module)
  Asger Halkier,            Aarhus University,            Denmark     (CC module)
  Hanne Heiberg,            University of Oslo,           Norway      (geometry analysis, selected one-electron integrals)
  Trygve Helgaker,          University of Oslo,           Norway      (DALTON; ABACUS, ERI, DFT modules, London, and much more)
  Alf Christian Hennum,     University of Oslo,           Norway      (Parity violation)
  Hinne Hettema,            University of Auckland,       New Zealand (quadratic response in RESPONS; SIRIUS supersymmetry)
  Eirik Hjertenaes,         NTNU,                         Norway      (Cholesky decomposition)
  Maria Francesca Iozzi,    University of Oslo,           Norway      (RPA)
  Brano Jansik              Technical Univ. of Ostrava    Czech Rep.  (DFT cubic response)
  Hans Joergen Aa. Jensen,  Univ. of Southern Denmark,    Denmark     (DALTON; SIRIUS, RESPONS, ABACUS modules, London, and much more)
  Dan Jonsson,              UiT The Arctic U. of Norway,  Norway      (cubic response in RESPONS module)
  Poul Joergensen,          Aarhus University,            Denmark     (RESPONS, ABACUS, and CC modules)
  Joanna Kauczor,           Linkoeping University,        Sweden      (Complex polarization propagator (CPP) module)
  Sheela Kirpekar,          Univ. of Southern Denmark,    Denmark     (Mass-velocity & Darwin integrals)
  Wim Klopper,              KIT Karlsruhe,                Germany     (R12 code in CC, SIRIUS, and ABACUS modules)
  Stefan Knecht,            ETH Zurich,                   Switzerland (Parallel CI and MCSCF)
  Rika Kobayashi,           Australian National Univ.,    Australia   (DIIS in CC, London in MCSCF)
  Henrik Koch,              NTNU,                         Norway      (CC module, Cholesky decomposition)
  Jacob Kongsted,           Univ. of Southern Denmark,    Denmark     (Polarizable embedding, QM/MM)
  Andrea Ligabue,           University of Modena,         Italy       (CTOCD, AOSOPPA)
  Ola B. Lutnaes,           University of Oslo,           Norway      (DFT Hessian)
  Juan I. Melo,             University of Buenos Aires,   Argentina   (LRESC, Relativistic Effects on NMR Shieldings)
  Kurt V. Mikkelsen,        University of Copenhagen,     Denmark     (MC-SCRF and QM/MM)
  Rolf H. Myhre,            NTNU,                         Norway      (Cholesky, subsystems and ECC2)
  Christian Neiss,          Univ. Erlangen-Nuernberg,     Germany     (CCSD(R12))
  Christian B. Nielsen,     University of Copenhagen,     Denmark     (QM/MM)
  Patrick Norman,           Linkoeping University,        Sweden      (Cubic response and complex response in RESPONS)
  Jeppe Olsen,              Aarhus University,            Denmark     (SIRIUS CI/density modules)
  Jogvan Magnus H. Olsen,   Univ. of Southern Denmark,    Denmark     (Polarizable embedding, PE library, QM/MM)
  Anders Osted,             Copenhagen University,        Denmark     (QM/MM)
  Martin J. Packer,         University of Sheffield,      UK          (SOPPA)
  Filip Pawlowski,          Kazimierz Wielki University   Poland      (CC3)
  Thomas B. Pedersen,       University of Oslo,           Norway      (Cholesky decomposition)
  Patricio F. Provasi,      University of Northeastern,   Argentina   (Analysis of coupling constants in localized orbitals)
  Zilvinas Rinkevicius,     KTH Stockholm,                Sweden      (open-shell DFT, ESR)
  Elias Rudberg,            KTH Stockholm,                Sweden      (DFT grid and basis info)
  Torgeir A. Ruden,         University of Oslo,           Norway      (Numerical derivatives in ABACUS)
  Kenneth Ruud,             UiT The Arctic U. of Norway,  Norway      (DALTON; ABACUS magnetic properties and  much more)
  Pawel Salek,              KTH Stockholm,                Sweden      (DALTON; DFT code)
  Claire C. M. Samson       University of Karlsruhe       Germany     (Boys localization, r12 integrals in ERI)
  Alfredo Sanchez de Meras, University of Valencia,       Spain       (CC module, Cholesky decomposition)
  Trond Saue,               Paul Sabatier University,     France      (direct Fock matrix construction)
  Stephan P. A. Sauer,      University of Copenhagen,     Denmark     (SOPPA(CCSD), SOPPA prop., AOSOPPA, vibrational g-factors)
  Bernd Schimmelpfennig,    Forschungszentrum Karlsruhe,  Germany     (AMFI module)
  Kristian Sneskov,         Aarhus University,            Denmark     (QM/MM, PE-CC)
  Arnfinn H. Steindal,      UiT The Arctic U. of Norway,  Norway      (parallel QM/MM)
  K. O. Sylvester-Hvid,     University of Copenhagen,     Denmark     (MC-SCRF)
  Peter R. Taylor,          VLSCI/Univ. of Melbourne,     Australia   (Symmetry handling ABACUS, integral transformation)
  Andrew M. Teale,          University of Nottingham,     England     (DFT-AC, DFT-D)
  David P. Tew,             University of Bristol,        England     (CCSD(R12))
  Olav Vahtras,             KTH Stockholm,                Sweden      (triplet response, spin-orbit, ESR, TDDFT, open-shell DFT)
  David J. Wilson,          La Trobe University,          Australia   (DFT Hessian and DFT magnetizabilities)
  Hans Agren,               KTH Stockholm,                Sweden      (SIRIUS module, RESPONS, MC-SCRF solvation model)
 --------------------------------------------------------------------------------

     Date and time (Linux)  : Sun Sep  8 20:52:59 2013
     Host name              : lpqlx131.ups-tlse.fr                    

 * Work memory size             :    64000000 =  488.28 megabytes.

 * Directories for basis set searches:
   1) /home/bast/DALTON-2013.0-Source/build/test_dft_b3lyp_cart
   2) /home/bast/DALTON-2013.0-Source/build/basis


Compilation information
-----------------------

 Who compiled             | bast
 Host                     | lpqlx131.ups-tlse.fr
 System                   | Linux-3.8.5-201.fc18.x86_64
 CMake generator          | Unix Makefiles
 Processor                | x86_64
 64-bit integers          | OFF
 MPI                      | OFF
 Fortran compiler         | /usr/bin/gfortran
 Fortran compiler version | GNU Fortran (GCC) 4.7.2 20121109 (Red Hat 4.7.2-8)
 C compiler               | /usr/bin/gcc
 C compiler version       | gcc (GCC) 4.7.2 20121109 (Red Hat 4.7.2-8)
 C++ compiler             | /usr/bin/g++
 C++ compiler version     | g++ (GCC) 4.7.2 20121109 (Red Hat 4.7.2-8)
 Static linking           | OFF
 Last Git revision        | f34203295a86316e27f9e7b44f9b6769c4a046c0
 Configuration time       | 2013-09-08 20:31:27.952056


   Content of the .dal input file
 ----------------------------------

**DALTON INPUT                                    
.RUN PROPERTIES                                   
**WAVE FUNCTIONS                                  
.DFT                                              
 B3LYP                                            
**END OF DALTON INPUT                             
                                                  


   Content of the .mol file
 ----------------------------

INTGRL                                                                         
H20                                                                            
Test including f-functions                                                     
C   2                                                                          
        8.    1    4    1    1    1    1                                       
O     0.0  0.0000000000          0.0                                           
    4    0                                                                     
87.0                                                                           
18.34                                                                          
3.23                                                                           
1.0                                                                            
    2    0                                                                     
3.67                                                                           
1.0                                                                            
    1    0                                                                     
1.0                                                                            
    1    0                                                                     
1.0                                                                            
        1.    2    2    1    1                                                 
H1    1.430    0.0  1.1                                                        
H2   -1.430    0.0  1.1                                                        
    2    0                                                                     
4.2321                                                                         
1.22                                                                           
    1    0                                                                     
1.0                                                                            
                                                                               


       *******************************************************************
       *********** Output from DALTON general input processing ***********
       *******************************************************************

 --------------------------------------------------------------------------------
   Overall default print level:    0
   Print level for DALTON.STAT:    1

    HERMIT 1- and 2-electron integral sections will be executed
    "Old" integral transformation used (limited to max 255 basis functions)
    Wave function sections will be executed (SIRIUS module)
    Static molecular property section will be executed (ABACUS module)
 --------------------------------------------------------------------------------


   ****************************************************************************
   *************** Output of molecule and basis set information ***************
   ****************************************************************************


    The two title cards from your ".mol" input:
    ------------------------------------------------------------------------
 1: H20                                                                     
 2: Test including f-functions                                              
    ------------------------------------------------------------------------

  Atomic type no.    1
  --------------------
  Nuclear charge:   8.00000
  Number of symmetry independent centers:    1
  Number of basis sets to read;    2

  Atomic type no.    2
  --------------------
  Nuclear charge:   1.00000
  Number of symmetry independent centers:    2
  Number of basis sets to read;    2


                      SYMADD: Requested addition of symmetry
                      --------------------------------------

 Symmetry test threshold:  5.00E-06

 - molecule centered at center of mass and rotated so
   principal axes of inertia are along coordinate axes.

 Symmetry class found: C(2v)          

 Symmetry Independent Centres             
 ----------------------------
       8 :      0.00000000     0.00000000    -0.12310635  Isotope  1
       1 :      0.00000000     1.43000000     0.97689365  Isotope  1

 The following elements were found:   X  Y     


                         SYMGRP: Point group information
                         -------------------------------

Full point group is: C(2v)          
Represented as:      C2v

   * The point group was generated by:

      Reflection in the yz-plane
      Reflection in the xz-plane

   * Group multiplication table

        |  E   C2z  Oxz  Oyz
   -----+--------------------
     E  |  E   C2z  Oxz  Oyz
    C2z | C2z   E   Oyz  Oxz
    Oxz | Oxz  Oyz   E   C2z
    Oyz | Oyz  Oxz  C2z   E 

   * Character table

        |  E   C2z  Oxz  Oyz
   -----+--------------------
    A1  |   1    1    1    1
    B1  |   1   -1    1   -1
    B2  |   1   -1   -1    1
    A2  |   1    1   -1   -1

   * Direct product table

        | A1   B1   B2   A2 
   -----+--------------------
    A1  | A1   B1   B2   A2 
    B1  | B1   A1   A2   B2 
    B2  | B2   A2   A1   B1 
    A2  | A2   B2   B1   A1 


                                 Isotopic Masses
                                 ---------------

                           O          15.994915
                           H1  _1      1.007825
                           H1  _2      1.007825

                       Total mass:    18.010565 amu
                       Natural abundance:  99.730 %

 Center-of-mass coordinates (a.u.):    0.000000    0.000000    0.000000


  Atoms and basis sets
  --------------------

  Number of atom types :    2
  Total number of atoms:    3

  label    atoms   charge   prim   cont     basis
  ----------------------------------------------------------------------
  O           1    8.0000    26    26      [4s2p1d1f|4s2p1d1f]                                
  H1          2    1.0000     5     5      [2s1p|2s1p]                                        
  ----------------------------------------------------------------------
  total:      3   10.0000    36    36
  ----------------------------------------------------------------------
  Cartesian basis used.
  (Note that d, f, ... atomic GTOs are not all normalized.)

  Threshold for neglecting AO integrals:  1.00D-12


  Cartesian Coordinates (a.u.)
  ----------------------------

  Total number of coordinates:    9
  O       :     1  x   0.0000000000    2  y   0.0000000000    3  z  -0.1231063545
  H1  / 1 :     4  x   0.0000000000    5  y   1.4300000000    6  z   0.9768936455
  H1  / 2 :     7  x   0.0000000000    8  y  -1.4300000000    9  z   0.9768936455


  Symmetry Coordinates
  --------------------

  Number of coordinates in each symmetry:     3    2    3    1

  Symmetry  A1  ( 1)

    1   O     z    3
    2   H1    y    [  5  -    8 ]/2
    3   H1    z    [  6  +    9 ]/2

  Symmetry  B1  ( 2)

    4   O     x    1
    5   H1    x    [  4  +    7 ]/2

  Symmetry  B2  ( 3)

    6   O     y    2
    7   H1    y    [  5  +    8 ]/2
    8   H1    z    [  6  -    9 ]/2

  Symmetry  A2  ( 4)

    9   H1    x    [  4  -    7 ]/2


   Interatomic separations (in Angstrom):
   --------------------------------------

            O           H1  _1      H1  _2
            ------      ------      ------
 O     :    0.000000
 H1  _1:    0.954707    0.000000
 H1  _2:    0.954707    1.513447    0.000000


  Max    interatomic separation is    1.5134 Angstrom (    2.8600 Bohr)
  between atoms    3 and    2, "H1  _2" and "H1  _1".

  Min HX interatomic separation is    0.9547 Angstrom (    1.8041 Bohr)


  Bond distances (Angstrom):
  --------------------------

                  atom 1     atom 2       distance
                  ------     ------       --------
  bond distance:  H1  _1     O            0.954707
  bond distance:  H1  _2     O            0.954707


  Bond angles (degrees):
  ----------------------

                  atom 1     atom 2     atom 3         angle
                  ------     ------     ------         -----
  bond angle:     H1  _1     O          H1  _2       104.863




 Principal moments of inertia (u*A**2) and principal axes
 --------------------------------------------------------

   IA       0.606537          0.000000    1.000000    0.000000
   IB       1.154222          0.000000    0.000000    1.000000
   IC       1.760759          1.000000    0.000000    0.000000


 Rotational constants
 --------------------

 The molecule is planar.

               A                   B                   C

         833220.2929         437852.3988         287023.3200 MHz
           27.793237           14.605184            9.574067 cm-1


@  Nuclear repulsion energy :    9.218170507464 Hartree


  Symmetry Orbitals
  -----------------

  Number of orbitals in each symmetry:          16    7   10    3


  Symmetry  A1 ( 1)

    1     O        s          1
    2     O        s          2
    3     O        s          3
    4     O        s          4
    5     O        pz         7
    6     O        pz        10
    7     O        dxx       11
    8     O        dyy       14
    9     O        dzz       16
   10     O        fxxz      19
   11     O        fyyz      24
   12     O        fzzz      26
   13     H1       s         27 +   28
   14     H1       s         29 +   30
   15     H1       py        33 -   34
   16     H1       pz        35 +   36


  Symmetry  B1 ( 2)

   17     O        px         5
   18     O        px         8
   19     O        dxz       13
   20     O        fxxx      17
   21     O        fxyy      20
   22     O        fxzz      22
   23     H1       px        31 +   32


  Symmetry  B2 ( 3)

   24     O        py         6
   25     O        py         9
   26     O        dyz       15
   27     O        fxxy      18
   28     O        fyyy      23
   29     O        fyzz      25
   30     H1       s         27 -   28
   31     H1       s         29 -   30
   32     H1       py        33 +   34
   33     H1       pz        35 -   36


  Symmetry  A2 ( 4)

   34     O        dxy       12
   35     O        fxyz      21
   36     H1       px        31 -   32

  Symmetries of electric field:  B1 (2)  B2 (3)  A1 (1)

  Symmetries of magnetic field:  B2 (3)  B1 (2)  A2 (4)


                     .---------------------------------------.
                     | Starting in Integral Section (HERMIT) |
                     `---------------------------------------'



    *************************************************************************
    ****************** Output from HERMIT input processing ******************
    *************************************************************************



     ************************************************************************
     ************************** Output from HERINT **************************
     ************************************************************************


 Threshold for neglecting two-electron integrals:  1.00D-12
 Number of two-electron integrals written:       51009 ( 23.0% )
 Megabytes written:                              0.591

 >>>> Total CPU  time used in HERMIT:   0.02 seconds
 >>>> Total wall time used in HERMIT:   0.02 seconds


                        .----------------------------------.
                        | End of Integral Section (HERMIT) |
                        `----------------------------------'



                   .--------------------------------------------.
                   | Starting in Wave Function Section (SIRIUS) |
                   `--------------------------------------------'


 *** Output from Huckel module :

     Using EWMO model:          F
     Using EHT  model:          T
     Number of Huckel orbitals each symmetry:    4    1    2    0

 Huckel EHT eigenvalues for symmetry :  1
          -20.705882      -1.507590      -0.670019      -0.291429

 Huckel EHT eigenvalues for symmetry :  2
           -0.616200

 Huckel EHT eigenvalues for symmetry :  3
           -0.731893      -0.256887

 **********************************************************************
 *SIRIUS* a direct, restricted step, second order MCSCF program       *
 **********************************************************************

 
     Date and time (Linux)  : Sun Sep  8 20:52:59 2013
     Host name              : lpqlx131.ups-tlse.fr                    

 Title lines from ".mol" input file:
     H20                                                                     
     Test including f-functions                                              

 Print level on unit LUPRI =   2 is   0
 Print level on unit LUW4  =   2 is   5

@    Restricted, closed shell Kohn-Sham DFT calculation.

 Initial molecular orbitals are obtained according to
 ".MOSTART EHT   " input option

     Wave function specification
     ============================
@    For the wave function of type :      >>> KS-DFT <<<
@    Number of closed shell electrons          10
@    Number of electrons in active shells       0
@    Total charge of the molecule               0

@    Spin multiplicity and 2 M_S                1         0
     Total number of symmetries                 4
@    Reference state symmetry                   1
 
     This is a DFT calculation of type: B3LYP
 Weighted mixed functional:
               HF exchange:    0.20000
                       VWN:    0.19000
                       LYP:    0.81000
                     Becke:    0.72000
                    Slater:    0.80000

     Orbital specifications
     ======================
     Abelian symmetry species          All |    1    2    3    4
                                       --- |  ---  ---  ---  ---
     Total number of orbitals           36 |   16    7   10    3
     Number of basis functions          36 |   16    7   10    3

      ** Automatic occupation of RKS orbitals **

      -- Initial occupation of symmetries is determined from extended Huckel guess.           
      -- Initial occupation of symmetries is :
@    Occupied SCF orbitals               5 |    3    1    1    0

     Maximum number of Fock   iterations      0
     Maximum number of DIIS   iterations     60
     Maximum number of QC-SCF iterations     60
     Threshold for SCF convergence     1.00D-05
 
     This is a DFT calculation of type: B3LYP
 Weighted mixed functional:
               HF exchange:    0.20000
                       VWN:    0.19000
                       LYP:    0.81000
                     Becke:    0.72000
                    Slater:    0.80000


 >>>>> DIIS optimization of Hartree-Fock <<<<<

 C1-DIIS algorithm; max error vectors =   10

 Automatic occupation of symmetries with  10 electrons.

 Iter     Total energy    Error norm  Delta(E)    SCF occupation
 -----------------------------------------------------------------------------
      K-S energy, electrons, error :     -7.807145969574   9.9999993259   -6.74D-07
@  1  -72.9532216535       1.29D+01  -7.30D+01     3   1   1   0
      Virial theorem: -V/T =      1.940285
@      MULPOP O      -1.86; H1  _1  0.93; H1  _2  0.93; 
 -----------------------------------------------------------------------------
      K-S energy, electrons, error :     -7.839502351139   9.9999994566   -5.43D-07
@  2  -73.9340849231       7.49D-01  -9.81D-01     3   1   1   0
      Virial theorem: -V/T =      1.988325
@      MULPOP O      -1.08; H1  _1  0.54; H1  _2  0.54; 
 -----------------------------------------------------------------------------
      K-S energy, electrons, error :     -7.858923103459   9.9999994413   -5.59D-07
@  3  -73.9474652543       2.72D-01  -1.34D-02     3   1   1   0
      Virial theorem: -V/T =      1.983714
@      MULPOP O      -1.12; H1  _1  0.56; H1  _2  0.56; 
 -----------------------------------------------------------------------------
      K-S energy, electrons, error :     -7.843702529230   9.9999994483   -5.52D-07
@  4  -73.9500758066       6.65D-02  -2.61D-03     3   1   1   0
      Virial theorem: -V/T =      1.985705
@      MULPOP O      -1.08; H1  _1  0.54; H1  _2  0.54; 
 -----------------------------------------------------------------------------
      K-S energy, electrons, error :     -7.851377456610   9.9999994458   -5.54D-07
@  5  -73.9502381705       1.36D-02  -1.62D-04     3   1   1   0
      Virial theorem: -V/T =      1.984715
@      MULPOP O      -1.09; H1  _1  0.55; H1  _2  0.55; 
 -----------------------------------------------------------------------------
      K-S energy, electrons, error :     -7.850068680376   9.9999994461   -5.54D-07
@  6  -73.9502439073       1.93D-04  -5.74D-06     3   1   1   0
      Virial theorem: -V/T =      1.984907
@      MULPOP O      -1.09; H1  _1  0.55; H1  _2  0.55; 
 -----------------------------------------------------------------------------
      K-S energy, electrons, error :     -7.850059408230   9.9999994461   -5.54D-07
@  7  -73.9502439095       2.62D-05  -2.13D-09     3   1   1   0
      Virial theorem: -V/T =      1.984907
@      MULPOP O      -1.09; H1  _1  0.55; H1  _2  0.55; 
 -----------------------------------------------------------------------------
      K-S energy, electrons, error :     -7.850061519729   9.9999994461   -5.54D-07
@  8  -73.9502439095       6.28D-07  -3.01D-11     3   1   1   0

@ *** DIIS converged in   8 iterations !
@     Converged SCF energy, gradient:    -73.950243909490    6.28D-07
    - total time used in SIRFCK :              0.00 seconds


 *** SCF orbital energy analysis ***

 Only the five lowest virtual orbital energies printed in each symmetry.

 Number of electrons :   10
 Orbital occupations :    3    1    1    0

 Sym       Kohn-Sham orbital energies

  1    -18.15145027    -0.57996068     0.05438312     0.90317612     1.66951287
         2.33639141     2.72470217     2.77248669

  2      0.14886289     1.88036342     2.59564062     3.05912045     3.83991963
         4.26221248

  3     -0.12067375     0.90088950     1.98217343     2.36124613     2.90777607
         3.71608950

  4      1.77031020     2.96141034     4.34621312

    E(LUMO) :     0.90088950 au (symmetry 3)
  - E(HOMO) :     0.14886289 au (symmetry 2)
  ------------------------------------------
    gap     :     0.75202661 au

 >>> Writing SIRIFC interface file <<<

 >>>> CPU and wall time for SCF :       1.653       1.674


                       .-----------------------------------.
                       | >>> Final results from SIRIUS <<< |
                       `-----------------------------------'


@    Spin multiplicity:           1
@    Spatial symmetry:            1
@    Total charge of molecule:    0

@    Final DFT energy:            -73.950243909490                 
@    Nuclear repulsion:             9.218170507464
@    Electronic energy:           -83.168414416954

@    Final gradient norm:           0.000000627544

 
     Date and time (Linux)  : Sun Sep  8 20:53:00 2013
     Host name              : lpqlx131.ups-tlse.fr                    


 INFO: Sorry, plot of MOs with Molden is only implemented for spherical GTOs

 (Only coefficients >0.0100 are printed.)

 Molecular orbitals for symmetry species  1
 ------------------------------------------

    Orbital         1        2        3        4        5
   1 O   :s      0.2143  -0.0465   0.0199   0.0229  -0.0018
   2 O   :s      0.5992  -0.1920   0.0794   0.0795   0.0004
   3 O   :s      0.5096  -0.0756   0.0697   0.2037  -0.0801
   4 O   :s     -0.2760   0.5612  -0.3001  -0.5318   0.1230
   5 O   :pz     0.0048   0.0527   0.2929  -0.1575   0.0895
   6 O   :pz    -0.0057   0.0921   0.3167  -0.2400   0.2543
   7 O   :dxx    0.0337   0.0964  -0.0440  -0.0163  -0.0332
   8 O   :dyy    0.0467   0.1058   0.0144   0.2061   0.0592
   9 O   :dzz    0.0415   0.1045   0.0051   0.1008  -0.2305
  10 O   :fxxz   0.0004   0.0136   0.0686  -0.0119  -0.0178
  11 O   :fyyz   0.0119  -0.0019   0.1038   0.0745  -0.0837
  12 O   :fzzz   0.0027   0.0107   0.0749   0.0093  -0.0175
  13 H1  :s      0.0051   0.0063   0.0175   0.0220  -0.0040
  14 H1  :s     -0.0268   0.1903   0.0910   0.3797   0.0739
  15 H1  :py     0.0107   0.0091   0.0579   0.3498   0.1965
  16 H1  :pz     0.0079   0.0132   0.0955   0.1839  -0.5344

 Molecular orbitals for symmetry species  2
 ------------------------------------------

    Orbital         1        2        3
   1 O   :px     0.3359  -0.1249  -0.1330
   2 O   :px     0.3694  -0.3705  -0.9787
   3 O   :dxz    0.0177   0.3521  -0.6976
   4 O   :fxxx   0.0760   0.0280   0.1949
   5 O   :fxyy   0.0726   0.0008   0.2163
   6 O   :fxzz   0.0743   0.0238   0.1818
   7 H1  :px     0.0613   0.5781   0.1223

 Molecular orbitals for symmetry species  3
 ------------------------------------------

    Orbital         1        2        3
   1 O   :py     0.2592  -0.2233  -0.0350
   2 O   :py     0.3041  -0.3053  -0.3658
   3 O   :dyz    0.1131   0.2687  -0.0652
   4 O   :fxxy   0.0634  -0.0210   0.0649
   5 O   :fyyy   0.0740   0.0041   0.1332
   6 O   :fyzz   0.0830   0.0151   0.1997
   7 H1  :s      0.0222   0.0132   0.0095
   8 H1  :s      0.2150   0.4256  -0.2663
   9 H1  :py     0.1014   0.2089   0.6804
  10 H1  :pz     0.0560   0.2410  -0.1399

 Molecular orbitals for symmetry species  4
 ------------------------------------------

    Orbital         1        2
   1 O   :dxy    0.3623  -0.9694
   2 O   :fxyz  -0.0417   0.1910
   3 H1  :px     0.5797   0.4602



 >>>> Total CPU  time used in SIRIUS :      1.66 seconds
 >>>> Total wall time used in SIRIUS :      1.68 seconds

 
     Date and time (Linux)  : Sun Sep  8 20:53:00 2013
     Host name              : lpqlx131.ups-tlse.fr                    

 NOTE:    1 informational messages have been issued.
 Check output, result, and error files for "INFO".


                     .---------------------------------------.
                     | End of Wave Function Section (SIRIUS) |
                     `---------------------------------------'


 Center of mass dipole origin  :    0.000000    0.000000    0.000000

 Center of mass gauge origin   :    0.000000    0.000000    0.000000


                 .------------------------------------------------.
                 | Starting in Static Property Section (ABACUS) - |
                 `------------------------------------------------'


 
     Date and time (Linux)  : Sun Sep  8 20:53:00 2013
     Host name              : lpqlx131.ups-tlse.fr                    


   ***************************************************************************
   ************************ FINAL RESULTS from ABACUS ************************
   ***************************************************************************


 
     Date and time (Linux)  : Sun Sep  8 20:53:00 2013
     Host name              : lpqlx131.ups-tlse.fr                    


                             Molecular geometry (au)
                             -----------------------

 O          0.0000000000            0.0000000000           -0.1231063545
 H1  _1     0.0000000000            1.4300000000            0.9768936455
 H1  _2     0.0000000000           -1.4300000000            0.9768936455





                        Molecular wave function and energy
                        ----------------------------------

     Spin multiplicity  1     State number       1     Total charge       0

     Total energy        -73.9502439095 au (Hartrees)
                         -2012.28849944 eV
                           -194156.3355 kJ/mol


                             Relativistic corrections
                             ------------------------

     Darwin correction:                          0.1095380827 au
     Mass-velocity correction:                  -0.1391457354 au

     Total relativistic correction:             -0.0296076527 au (0.0400%)
     Non-relativistic + relativistic energy:   -73.9798515622 au




                                  Dipole moment
                                  -------------

                 au               Debye          C m (/(10**-30)
              0.783423           1.991262           6.642136


                             Dipole moment components
                             ------------------------

                 au               Debye          C m (/(10**-30)

      z      0.78342292         1.99126232         6.64213612


   Units:   1 a.u. =   2.54175 Debye 
            1 a.u. =   8.47835 (10**-30) C m (SI)




   Interatomic separations (in Angstrom):
   --------------------------------------

            O           H1  _1      H1  _2
            ------      ------      ------
 O     :    0.000000
 H1  _1:    0.954707    0.000000
 H1  _2:    0.954707    1.513447    0.000000


  Max    interatomic separation is    1.5134 Angstrom (    2.8600 Bohr)
  between atoms    3 and    2, "H1  _2" and "H1  _1".

  Min HX interatomic separation is    0.9547 Angstrom (    1.8041 Bohr)


  Bond distances (Angstrom):
  --------------------------

                  atom 1     atom 2       distance
                  ------     ------       --------
  bond distance:  H1  _1     O            0.954707
  bond distance:  H1  _2     O            0.954707


  Bond angles (degrees):
  ----------------------

                  atom 1     atom 2     atom 3         angle
                  ------     ------     ------         -----
  bond angle:     H1  _1     O          H1  _2       104.863




 CPU time statistics for ABACUS
 ------------------------------




 >>>> Total CPU  time used in ABACUS:   0.00 seconds
 >>>> Total wall time used in ABACUS:   0.00 seconds


                   .-------------------------------------------.
                   | End of Static Property Section (ABACUS) - |
                   `-------------------------------------------'

 >>>> Total CPU  time used in DALTON:   1.68 seconds
 >>>> Total wall time used in DALTON:   1.70 seconds

 
     Date and time (Linux)  : Sun Sep  8 20:53:00 2013
     Host name              : lpqlx131.ups-tlse.fr                    
