

     ************************************************************************
     *************** Dalton - An Electronic Structure Program ***************
     ************************************************************************

    This is output from DALTON (Release Dalton2013 patch 0)
   ----------------------------------------------------------------------------
    NOTE:
     
    Dalton is an experimental code for the evaluation of molecular
    properties using (MC)SCF, DFT, CI, and CC wave functions.
    The authors accept no responsibility for the performance of
    the code or for the correctness of the results.
     
    The code (in whole or part) is provided under a licence and
    is not to be reproduced for further distribution without
    the written permission of the authors or their representatives.
     
    See the home page "http://daltonprogram.org" for further information.
     
    If results obtained with this code are published,
    the appropriate citations would be both of:
     
       K. Aidas, C. Angeli, K. L. Bak, V. Bakken, R. Bast,
       L. Boman, O. Christiansen, R. Cimiraglia, S. Coriani,
       P. Dahle, E. K. Dalskov, U. Ekstroem, T. Enevoldsen,
       J. J. Eriksen, P. Ettenhuber, B. Fernandez, L. Ferrighi,
       H. Fliegl, L. Frediani, K. Hald, A. Halkier, C. Haettig,
       H. Heiberg, T. Helgaker, A. C. Hennum, H. Hettema,
       E. Hjertenaes, S. Hoest, I.-M. Hoeyvik, M. F. Iozzi,
       B. Jansik, H. J. Aa. Jensen, D. Jonsson, P. Joergensen,
       J. Kauczor, S. Kirpekar, T. Kjaergaard, W. Klopper,
       S. Knecht, R. Kobayashi, H. Koch, J. Kongsted, A. Krapp,
       K. Kristensen, A. Ligabue, O. B. Lutnaes, J. I. Melo,
       K. V. Mikkelsen, R. H. Myhre, C. Neiss, C. B. Nielsen,
       P. Norman, J. Olsen, J. M. H. Olsen, A. Osted,
       M. J. Packer, F. Pawlowski, T. B. Pedersen, P. F. Provasi,
       S. Reine, Z. Rinkevicius, T. A. Ruden, K. Ruud, V. Rybkin,
       P. Salek, C. C. M. Samson, A. Sanchez de Meras, T. Saue,
       S. P. A. Sauer, B. Schimmelpfennig, K. Sneskov,
       A. H. Steindal, K. O. Sylvester-Hvid, P. R. Taylor,
       A. M. Teale, E. I. Tellgren, D. P. Tew, A. J. Thorvaldsen,
       L. Thoegersen, O. Vahtras, M. A. Watson, D. J. D. Wilson,
       M. Ziolkowski and H. Agren.
       The Dalton quantum chemistry program system.
       WIREs Comput. Mol. Sci. 2013. doi: 10.1002/wcms.1172
    
    and
    
       Dalton, a Molecular Electronic Structure Program,
       Release DALTON2013.0 (2013), see http://daltonprogram.org
   ----------------------------------------------------------------------------

    Authors in alphabetical order (major contribution(s) in parenthesis):

  Kestutis Aidas,           Vilnius University,           Lithuania   (QM/MM)
  Celestino Angeli,         University of Ferrara,        Italy       (NEVPT2)
  Keld L. Bak,              UNI-C,                        Denmark     (AOSOPPA, non-adiabatic coupling, magnetic properties)
  Vebjoern Bakken,          University of Oslo,           Norway      (DALTON; geometry optimizer, symmetry detection)
  Radovan Bast,             KTH Stockholm                 Sweden      (DALTON installation and execution frameworks)
  Linus Boman,              NTNU,                         Norway      (Cholesky decomposition and subsystems)
  Ove Christiansen,         Aarhus University,            Denmark     (CC module)
  Renzo Cimiraglia,         University of Ferrara,        Italy       (NEVPT2)
  Sonia Coriani,            University of Trieste,        Italy       (CC module, MCD in RESPONS)
  Paal Dahle,               University of Oslo,           Norway      (Parallelization)
  Erik K. Dalskov,          UNI-C,                        Denmark     (SOPPA)
  Thomas Enevoldsen,        Univ. of Southern Denmark,    Denmark     (SOPPA)
  Janus J. Eriksen,         Aarhus University,            Denmark     (PE-MP2/SOPPA, TDA)
  Berta Fernandez,          U. of Santiago de Compostela, Spain       (doublet spin, ESR in RESPONS)
  Lara Ferrighi,            Aarhus University,            Denmark     (PCM Cubic response)
  Heike Fliegl,             University of Oslo,           Norway      (CCSD(R12))
  Luca Frediani,            UiT The Arctic U. of Norway,  Norway      (PCM)
  Bin Gao,                  UiT The Arctic U. of Norway,  Norway      (Gen1Int library)
  Christof Haettig,         Ruhr-University Bochum,       Germany     (CC module)
  Kasper Hald,              Aarhus University,            Denmark     (CC module)
  Asger Halkier,            Aarhus University,            Denmark     (CC module)
  Hanne Heiberg,            University of Oslo,           Norway      (geometry analysis, selected one-electron integrals)
  Trygve Helgaker,          University of Oslo,           Norway      (DALTON; ABACUS, ERI, DFT modules, London, and much more)
  Alf Christian Hennum,     University of Oslo,           Norway      (Parity violation)
  Hinne Hettema,            University of Auckland,       New Zealand (quadratic response in RESPONS; SIRIUS supersymmetry)
  Eirik Hjertenaes,         NTNU,                         Norway      (Cholesky decomposition)
  Maria Francesca Iozzi,    University of Oslo,           Norway      (RPA)
  Brano Jansik              Technical Univ. of Ostrava    Czech Rep.  (DFT cubic response)
  Hans Joergen Aa. Jensen,  Univ. of Southern Denmark,    Denmark     (DALTON; SIRIUS, RESPONS, ABACUS modules, London, and much more)
  Dan Jonsson,              UiT The Arctic U. of Norway,  Norway      (cubic response in RESPONS module)
  Poul Joergensen,          Aarhus University,            Denmark     (RESPONS, ABACUS, and CC modules)
  Joanna Kauczor,           Linkoeping University,        Sweden      (Complex polarization propagator (CPP) module)
  Sheela Kirpekar,          Univ. of Southern Denmark,    Denmark     (Mass-velocity & Darwin integrals)
  Wim Klopper,              KIT Karlsruhe,                Germany     (R12 code in CC, SIRIUS, and ABACUS modules)
  Stefan Knecht,            ETH Zurich,                   Switzerland (Parallel CI and MCSCF)
  Rika Kobayashi,           Australian National Univ.,    Australia   (DIIS in CC, London in MCSCF)
  Henrik Koch,              NTNU,                         Norway      (CC module, Cholesky decomposition)
  Jacob Kongsted,           Univ. of Southern Denmark,    Denmark     (Polarizable embedding, QM/MM)
  Andrea Ligabue,           University of Modena,         Italy       (CTOCD, AOSOPPA)
  Ola B. Lutnaes,           University of Oslo,           Norway      (DFT Hessian)
  Juan I. Melo,             University of Buenos Aires,   Argentina   (LRESC, Relativistic Effects on NMR Shieldings)
  Kurt V. Mikkelsen,        University of Copenhagen,     Denmark     (MC-SCRF and QM/MM)
  Rolf H. Myhre,            NTNU,                         Norway      (Cholesky, subsystems and ECC2)
  Christian Neiss,          Univ. Erlangen-Nuernberg,     Germany     (CCSD(R12))
  Christian B. Nielsen,     University of Copenhagen,     Denmark     (QM/MM)
  Patrick Norman,           Linkoeping University,        Sweden      (Cubic response and complex response in RESPONS)
  Jeppe Olsen,              Aarhus University,            Denmark     (SIRIUS CI/density modules)
  Jogvan Magnus H. Olsen,   Univ. of Southern Denmark,    Denmark     (Polarizable embedding, PE library, QM/MM)
  Anders Osted,             Copenhagen University,        Denmark     (QM/MM)
  Martin J. Packer,         University of Sheffield,      UK          (SOPPA)
  Filip Pawlowski,          Kazimierz Wielki University   Poland      (CC3)
  Thomas B. Pedersen,       University of Oslo,           Norway      (Cholesky decomposition)
  Patricio F. Provasi,      University of Northeastern,   Argentina   (Analysis of coupling constants in localized orbitals)
  Zilvinas Rinkevicius,     KTH Stockholm,                Sweden      (open-shell DFT, ESR)
  Elias Rudberg,            KTH Stockholm,                Sweden      (DFT grid and basis info)
  Torgeir A. Ruden,         University of Oslo,           Norway      (Numerical derivatives in ABACUS)
  Kenneth Ruud,             UiT The Arctic U. of Norway,  Norway      (DALTON; ABACUS magnetic properties and  much more)
  Pawel Salek,              KTH Stockholm,                Sweden      (DALTON; DFT code)
  Claire C. M. Samson       University of Karlsruhe       Germany     (Boys localization, r12 integrals in ERI)
  Alfredo Sanchez de Meras, University of Valencia,       Spain       (CC module, Cholesky decomposition)
  Trond Saue,               Paul Sabatier University,     France      (direct Fock matrix construction)
  Stephan P. A. Sauer,      University of Copenhagen,     Denmark     (SOPPA(CCSD), SOPPA prop., AOSOPPA, vibrational g-factors)
  Bernd Schimmelpfennig,    Forschungszentrum Karlsruhe,  Germany     (AMFI module)
  Kristian Sneskov,         Aarhus University,            Denmark     (QM/MM, PE-CC)
  Arnfinn H. Steindal,      UiT The Arctic U. of Norway,  Norway      (parallel QM/MM)
  K. O. Sylvester-Hvid,     University of Copenhagen,     Denmark     (MC-SCRF)
  Peter R. Taylor,          VLSCI/Univ. of Melbourne,     Australia   (Symmetry handling ABACUS, integral transformation)
  Andrew M. Teale,          University of Nottingham,     England     (DFT-AC, DFT-D)
  David P. Tew,             University of Bristol,        England     (CCSD(R12))
  Olav Vahtras,             KTH Stockholm,                Sweden      (triplet response, spin-orbit, ESR, TDDFT, open-shell DFT)
  David J. Wilson,          La Trobe University,          Australia   (DFT Hessian and DFT magnetizabilities)
  Hans Agren,               KTH Stockholm,                Sweden      (SIRIUS module, RESPONS, MC-SCRF solvation model)
 --------------------------------------------------------------------------------

     Date and time (Linux)  : Sun Sep  8 20:53:23 2013
     Host name              : lpqlx131.ups-tlse.fr                    

 * Work memory size             :    64000000 =  488.28 megabytes.

 * Directories for basis set searches:
   1) /home/bast/DALTON-2013.0-Source/build/test_dft_energy_sym
   2) /home/bast/DALTON-2013.0-Source/build/basis


Compilation information
-----------------------

 Who compiled             | bast
 Host                     | lpqlx131.ups-tlse.fr
 System                   | Linux-3.8.5-201.fc18.x86_64
 CMake generator          | Unix Makefiles
 Processor                | x86_64
 64-bit integers          | OFF
 MPI                      | OFF
 Fortran compiler         | /usr/bin/gfortran
 Fortran compiler version | GNU Fortran (GCC) 4.7.2 20121109 (Red Hat 4.7.2-8)
 C compiler               | /usr/bin/gcc
 C compiler version       | gcc (GCC) 4.7.2 20121109 (Red Hat 4.7.2-8)
 C++ compiler             | /usr/bin/g++
 C++ compiler version     | g++ (GCC) 4.7.2 20121109 (Red Hat 4.7.2-8)
 Static linking           | OFF
 Last Git revision        | f34203295a86316e27f9e7b44f9b6769c4a046c0
 Configuration time       | 2013-09-08 20:31:27.952056


   Content of the .dal input file
 ----------------------------------

**DALTON                                          
.RUN WAVE FUNCTIONS                               
.DIRECT                                           
**WAVE FUNCTIONS                                  
.DFT                                              
GGAKey hf=0.5 slater=0.5 pz81=1                   
**END OF                                          
                                                  


   Content of the .mol file
 ----------------------------

BASIS                                                                          
6-31G**                                                                        
Hydrogen Peroxide                                                              
                                                                               
    2                                                                          
        8.    2                                                                
O     0.0000000000000000  1.4078458614912979  0.0000000000000000       *       
O     0.0000000000000000 -1.4078458614912979  0.0000000000000000       *       
        1.    2                                                                
H     0.6908148895270996  1.7261489114716695  1.6677746753855953       *       
H    -0.6908148895270996 -1.7261489114716695  1.6677746753855953       *       
                                                                               


       *******************************************************************
       *********** Output from DALTON general input processing ***********
       *******************************************************************

 --------------------------------------------------------------------------------
   Overall default print level:    0
   Print level for DALTON.STAT:    1

    AO-direct calculation (in sections where implemented)
    HERMIT 1- and 2-electron integral sections will be executed
    "Old" integral transformation used (limited to max 255 basis functions)
    Wave function sections will be executed (SIRIUS module)
 --------------------------------------------------------------------------------


   ****************************************************************************
   *************** Output of molecule and basis set information ***************
   ****************************************************************************


    The two title cards from your ".mol" input:
    ------------------------------------------------------------------------
 1: Hydrogen Peroxide                                                       
 2:                                                                         
    ------------------------------------------------------------------------

  Atomic type no.    1
  --------------------
  Nuclear charge:   8.00000
  Number of symmetry independent centers:    2
  Number of basis sets to read;    2
  Basis set file used for this atomic type with Z =   8 :
     "/home/bast/DALTON-2013.0-Source/build/basis/6-31G**"

  Info about the basis set file: your basis has no documentation.
  Basis set: 6-31G**                                                                         

  Atomic type no.    2
  --------------------
  Nuclear charge:   1.00000
  Number of symmetry independent centers:    2
  Number of basis sets to read;    2
  Basis set file used for this atomic type with Z =   1 :
     "/home/bast/DALTON-2013.0-Source/build/basis/6-31G**"

  Info about the basis set file: your basis has no documentation.
  Basis set: 6-31G**                                                                         


                      SYMADD: Requested addition of symmetry
                      --------------------------------------

 Symmetry test threshold:  5.00E-06

 - molecule centered at center of mass and rotated so
   principal axes of inertia are along coordinate axes.

 Symmetry class found: C(2)           

 Symmetry Independent Centres             
 ----------------------------
       8 :      1.40784586     0.00000000    -0.09885613  Isotope  1
       1 :      1.72614891    -0.69081489     1.56891855  Isotope  1

 The following element was found:   XY       


                         SYMGRP: Point group information
                         -------------------------------

Full point group is: C(2)           
Represented as:      C2 

   * The point group was generated by:

      Rotation about the z-axis

   * Group multiplication table

        |  E   C2z
   -----+----------
     E  |  E   C2z
    C2z | C2z   E 

   * Character table

        |  E   C2z
   -----+----------
    A   |   1    1
    B   |   1   -1

   * Direct product table

        | A    B  
   -----+----------
    A   | A    B  
    B   | B    A  


                                 Isotopic Masses
                                 ---------------

                           O   _1     15.994915
                           O   _2     15.994915
                           H   _1      1.007825
                           H   _2      1.007825

                       Total mass:    34.005480 amu
                       Natural abundance:  99.491 %

 Center-of-mass coordinates (a.u.):    0.000000    0.000000    0.000000


  Atoms and basis sets
  --------------------

  Number of atom types :    2
  Total number of atoms:    4

  Basis set used is "6-31G**" from the basis set library.

  label    atoms   charge   prim   cont     basis
  ----------------------------------------------------------------------
  O           2    8.0000    27    14      [10s4p1d|3s2p1d]                                   
  H           2    1.0000     7     5      [4s1p|2s1p]                                        
  ----------------------------------------------------------------------
  total:      4   18.0000    68    38
  ----------------------------------------------------------------------
  Spherical harmonic basis used.

  Threshold for neglecting AO integrals:  1.00D-12


  Cartesian Coordinates (a.u.)
  ----------------------------

  Total number of coordinates:   12
  O   / 1 :     1  x   1.4078458615    2  y   0.0000000000    3  z  -0.0988561263
  O   / 2 :     4  x  -1.4078458615    5  y  -0.0000000000    6  z  -0.0988561263
  H   / 1 :     7  x   1.7261489115    8  y  -0.6908148895    9  z   1.5689185491
  H   / 2 :    10  x  -1.7261489115   11  y   0.6908148895   12  z   1.5689185491


  Symmetry Coordinates
  --------------------

  Number of coordinates in each symmetry:     6    6

  Symmetry  A   ( 1)

    1   O     x    [  1  -    4 ]/2
    2   O     y    [  2  -    5 ]/2
    3   O     z    [  3  +    6 ]/2
    4   H     x    [  7  -   10 ]/2
    5   H     y    [  8  -   11 ]/2
    6   H     z    [  9  +   12 ]/2

  Symmetry  B   ( 2)

    7   O     x    [  1  +    4 ]/2
    8   O     y    [  2  +    5 ]/2
    9   O     z    [  3  -    6 ]/2
   10   H     x    [  7  +   10 ]/2
   11   H     y    [  8  +   11 ]/2
   12   H     z    [  9  -   12 ]/2


   Interatomic separations (in Angstrom):
   --------------------------------------

            O   _1      O   _2      H   _1      H   _2
            ------      ------      ------      ------
 O   _1:    0.000000
 O   _2:    1.490000    0.000000
 H   _1:    0.970000    1.913883    0.000000
 H   _2:    1.913883    0.970000    1.967747    0.000000


  Max    interatomic separation is    1.9677 Angstrom (    3.7185 Bohr)
  between atoms    4 and    3, "H   _2" and "H   _1".

  Min HX interatomic separation is    0.9700 Angstrom (    1.8330 Bohr)

  Min YX interatomic separation is    1.4900 Angstrom (    2.8157 Bohr)


  Bond distances (Angstrom):
  --------------------------

                  atom 1     atom 2       distance
                  ------     ------       --------
  bond distance:  O   _2     O   _1       1.490000
  bond distance:  H   _1     O   _1       0.970000
  bond distance:  H   _2     O   _2       0.970000


  Bond angles (degrees):
  ----------------------

                  atom 1     atom 2     atom 3         angle
                  ------     ------     ------         -----
  bond angle:     O   _2     O   _1     H   _1       100.000
  bond angle:     O   _1     O   _2     H   _2       100.000




 Principal moments of inertia (u*A**2) and principal axes
 --------------------------------------------------------

   IA       1.722673          0.999386   -0.035050    0.000000
   IB      19.706316          0.000000    0.000000    1.000000
   IC      20.937470          0.035050    0.999386    0.000000


 Rotational constants
 --------------------

               A                   B                   C

         293369.0666          25645.5346          24137.5388 MHz
            9.785739            0.855443            0.805142 cm-1


@  Nuclear repulsion energy :   36.151288504456 Hartree


  Symmetry Orbitals
  -----------------

  Number of orbitals in each symmetry:          19   19


  Symmetry  A  ( 1)

    1     O        1s         1 +    2
    2     O        1s         3 +    4
    3     O        1s         5 +    6
    4     O        2px        7 -    8
    5     O        2py        9 -   10
    6     O        2pz       11 +   12
    7     O        2px       13 -   14
    8     O        2py       15 -   16
    9     O        2pz       17 +   18
   10     O        3d2-      19 +   20
   11     O        3d1-      21 -   22
   12     O        3d0       23 +   24
   13     O        3d1+      25 -   26
   14     O        3d2+      27 +   28
   15     H        1s        29 +   30
   16     H        1s        31 +   32
   17     H        2px       33 -   34
   18     H        2py       35 -   36
   19     H        2pz       37 +   38


  Symmetry  B  ( 2)

   20     O        1s         1 -    2
   21     O        1s         3 -    4
   22     O        1s         5 -    6
   23     O        2px        7 +    8
   24     O        2py        9 +   10
   25     O        2pz       11 -   12
   26     O        2px       13 +   14
   27     O        2py       15 +   16
   28     O        2pz       17 -   18
   29     O        3d2-      19 -   20
   30     O        3d1-      21 +   22
   31     O        3d0       23 -   24
   32     O        3d1+      25 +   26
   33     O        3d2+      27 -   28
   34     H        1s        29 -   30
   35     H        1s        31 -   32
   36     H        2px       33 +   34
   37     H        2py       35 +   36
   38     H        2pz       37 -   38

  Symmetries of electric field:  B  (2)  B  (2)  A  (1)

  Symmetries of magnetic field:  B  (2)  B  (2)  A  (1)


                     .---------------------------------------.
                     | Starting in Integral Section (HERMIT) |
                     `---------------------------------------'



    *************************************************************************
    ****************** Output from HERMIT input processing ******************
    *************************************************************************



     ************************************************************************
     ************************** Output from HERINT **************************
     ************************************************************************

 >>>> Total CPU  time used in HERMIT:   0.01 seconds
 >>>> Total wall time used in HERMIT:   0.01 seconds


                        .----------------------------------.
                        | End of Integral Section (HERMIT) |
                        `----------------------------------'



                   .--------------------------------------------.
                   | Starting in Wave Function Section (SIRIUS) |
                   `--------------------------------------------'


 *** Output from Huckel module :

     Using EWMO model:          F
     Using EHT  model:          T
     Number of Huckel orbitals each symmetry:    6    6

 Huckel EHT eigenvalues for symmetry :  1
          -20.700057      -1.634703      -0.785249      -0.664380      -0.550014
           -0.288953

 Huckel EHT eigenvalues for symmetry :  2
          -20.692928      -1.230185      -0.707787      -0.588589      -0.453462
           -0.263493

 **********************************************************************
 *SIRIUS* a direct, restricted step, second order MCSCF program       *
 **********************************************************************

 
     Date and time (Linux)  : Sun Sep  8 20:53:23 2013
     Host name              : lpqlx131.ups-tlse.fr                    

 Title lines from ".mol" input file:
     Hydrogen Peroxide                                                       
                                                                             

 Print level on unit LUPRI =   2 is   0
 Print level on unit LUW4  =   2 is   5

@    Restricted, closed shell Kohn-Sham DFT calculation.
 Fock matrices are calculated directly without use of integrals on disk.

 Initial molecular orbitals are obtained according to
 ".MOSTART EHT   " input option

     Wave function specification
     ============================
@    For the wave function of type :      >>> KS-DFT <<<
@    Number of closed shell electrons          18
@    Number of electrons in active shells       0
@    Total charge of the molecule               0

@    Spin multiplicity and 2 M_S                1         0
     Total number of symmetries                 2
@    Reference state symmetry                   1
 
     This is a DFT calculation of type: GGAKey
 Weighted mixed functional:
               HF exchange:    0.50000
                      PZ81:    1.00000
                    Slater:    0.50000

     Orbital specifications
     ======================
     Abelian symmetry species          All |    1    2
                                       --- |  ---  ---
     Total number of orbitals           38 |   19   19
     Number of basis functions          38 |   19   19

      ** Automatic occupation of RKS orbitals **

      -- Initial occupation of symmetries is determined from extended Huckel guess.           
      -- Initial occupation of symmetries is :
@    Occupied SCF orbitals               9 |    5    4

     Maximum number of Fock   iterations      0
     Maximum number of DIIS   iterations     60
     Maximum number of QC-SCF iterations     60
     Threshold for SCF convergence     1.00D-05
 
     This is a DFT calculation of type: GGAKey
 Weighted mixed functional:
               HF exchange:    0.50000
                      PZ81:    1.00000
                    Slater:    0.50000


 >>>>> DIIS optimization of Hartree-Fock <<<<<

 C1-DIIS algorithm; max error vectors =   10

 Automatic occupation of symmetries with  18 electrons.

 Iter     Total energy    Error norm  Delta(E)    SCF occupation
 -----------------------------------------------------------------------------
   1  Screening settings (-IFTHRS, DIFDEN)   -6    F
      K-S energy, electrons, error :     -8.907062088036  18.0000009505    9.51D-07
@  1  -150.877198743       2.81D+00  -1.51D+02     5   4
      Virial theorem: -V/T =      2.005490
@      MULPOP O   _1 -0.22; O   _2 -0.22; H   _1  0.22; H   _2  0.22; 
 -----------------------------------------------------------------------------
   2  Screening settings (-IFTHRS, DIFDEN)   -7    F
      K-S energy, electrons, error :     -9.019152729249  18.0000009796    9.80D-07
@  2  -151.182744614       6.39D-01  -3.06D-01     5   4
      Virial theorem: -V/T =      2.001291
@      MULPOP O   _1 -0.34; O   _2 -0.34; H   _1  0.34; H   _2  0.34; 
 -----------------------------------------------------------------------------
   3  Screening settings (-IFTHRS, DIFDEN)   -8    F
      K-S energy, electrons, error :     -8.960541673673  18.0000009440    9.44D-07
@  3  -151.200094024       1.59D-01  -1.73D-02     5   4
      Virial theorem: -V/T =      2.007075
@      MULPOP O   _1 -0.34; O   _2 -0.34; H   _1  0.34; H   _2  0.34; 
 -----------------------------------------------------------------------------
   4  Screening settings (-IFTHRS, DIFDEN)   -8    F
      K-S energy, electrons, error :     -8.989109434075  18.0000009402    9.40D-07
@  4  -151.201172061       6.71D-02  -1.08D-03     5   4
      Virial theorem: -V/T =      2.004242
@      MULPOP O   _1 -0.36; O   _2 -0.36; H   _1  0.36; H   _2  0.36; 
 -----------------------------------------------------------------------------
   5  Screening settings (-IFTHRS, DIFDEN)   -9    F
      K-S energy, electrons, error :     -8.979648590295  18.0000009416    9.42D-07
@  5  -151.201389145       7.55D-03  -2.17D-04     5   4
      Virial theorem: -V/T =      2.005150
@      MULPOP O   _1 -0.36; O   _2 -0.36; H   _1  0.36; H   _2  0.36; 
 -----------------------------------------------------------------------------
   6  Screening settings (-IFTHRS, DIFDEN)   -9    F
      K-S energy, electrons, error :     -8.980425810446  18.0000009410    9.41D-07
@  6  -151.201392101       4.66D-04  -2.96D-06     5   4
      Virial theorem: -V/T =      2.005068
@      MULPOP O   _1 -0.36; O   _2 -0.36; H   _1  0.36; H   _2  0.36; 
 -----------------------------------------------------------------------------
   7  Screening settings (-IFTHRS, DIFDEN)  -10    F
      K-S energy, electrons, error :     -8.980411452177  18.0000009409    9.41D-07
@  7  -151.201392125       1.26D-04  -2.36D-08     5   4
      Virial theorem: -V/T =      2.005069
@      MULPOP O   _1 -0.36; O   _2 -0.36; H   _1  0.36; H   _2  0.36; 
 -----------------------------------------------------------------------------
   8  Screening settings (-IFTHRS, DIFDEN)  -10    F
      K-S energy, electrons, error :     -8.980414520650  18.0000009409    9.41D-07
@  8  -151.201392128       4.01D-05  -3.41D-09     5   4
      Virial theorem: -V/T =      2.005068
@      MULPOP O   _1 -0.36; O   _2 -0.36; H   _1  0.36; H   _2  0.36; 
 -----------------------------------------------------------------------------
   9  Screening settings (-IFTHRS, DIFDEN)  -10    F
      K-S energy, electrons, error :     -8.980413875660  18.0000009409    9.41D-07
@  9  -151.201392128       8.21D-06  -3.59D-10     5   4

@ *** DIIS converged in   9 iterations !
@     Converged SCF energy, gradient:   -151.201392128432    8.21D-06
    - total time used in SIRFCK :              0.00 seconds


 *** SCF orbital energy analysis ***

 Only the five lowest virtual orbital energies printed in each symmetry.

 Number of electrons :   18
 Orbital occupations :    5    4

 Sym       Kohn-Sham orbital energies

  1    -19.68796727    -1.25910192    -0.64372384    -0.51015879    -0.36618041
         0.08513950     0.82306687     0.94798910     1.02621420     1.06151772

  2    -19.68785667    -1.03953603    -0.53654529    -0.44294695     0.05832674
         0.18235606     0.83572940     0.91858764     1.03379119

    E(LUMO) :     0.05832674 au (symmetry 2)
  - E(HOMO) :    -0.36618041 au (symmetry 1)
  ------------------------------------------
    gap     :     0.42450714 au

 >>> Writing SIRIFC interface file <<<

 >>>> CPU and wall time for SCF :       2.421       2.443


                       .-----------------------------------.
                       | >>> Final results from SIRIUS <<< |
                       `-----------------------------------'


@    Spin multiplicity:           1
@    Spatial symmetry:            1
@    Total charge of molecule:    0

@    Final DFT energy:           -151.201392128432                 
@    Nuclear repulsion:            36.151288504456
@    Electronic energy:          -187.352680632888

@    Final gradient norm:           0.000008205939

 
     Date and time (Linux)  : Sun Sep  8 20:53:25 2013
     Host name              : lpqlx131.ups-tlse.fr                    

 (Only coefficients >0.0100 are printed.)

 Molecular orbitals for symmetry species  1
 ------------------------------------------

    Orbital         1        2        3        4        5        6        7
   1 O   :1s     0.7036  -0.1506   0.0245  -0.0447  -0.0112   0.0499   0.0098
   2 O   :1s     0.0189   0.3321  -0.0561   0.1079   0.0247  -0.0851  -0.0832
   3 O   :1s    -0.0054   0.2933  -0.0972   0.1787   0.0561  -0.6143   0.2166
   4 O   :2px   -0.0009  -0.0774   0.2057   0.3901   0.0506  -0.0538   0.0635
   5 O   :2py   -0.0005  -0.0181  -0.0690  -0.0092   0.4816   0.0749   0.2014
   6 O   :2pz    0.0014   0.0547   0.3207  -0.1939   0.0939  -0.2013  -0.2223
   7 O   :2px    0.0004  -0.0328   0.1048   0.2501   0.0340  -0.0797  -0.1433
   8 O   :2py    0.0002  -0.0060  -0.0322  -0.0087   0.3550   0.1460  -0.1229
   9 O   :2pz   -0.0006   0.0261   0.1727  -0.1378   0.0766  -0.3544   0.0823
  10 O   :3d2-  -0.0001   0.0001  -0.0031  -0.0047   0.0037   0.0009  -0.0106
  11 O   :3d1-  -0.0004  -0.0019  -0.0085   0.0012   0.0162   0.0097  -0.1045
  12 O   :3d0    0.0007  -0.0052   0.0242   0.0022   0.0073  -0.0067   0.1490
  13 O   :3d1+   0.0002  -0.0048  -0.0048   0.0237  -0.0033   0.0028   0.0887
  14 O   :3d2+  -0.0005   0.0163  -0.0147  -0.0190   0.0044  -0.0024  -0.0228
  15 H   :1s    -0.0009   0.0979   0.1864  -0.0189  -0.0512   0.0889   0.6916
  16 H   :1s     0.0016  -0.0001   0.1011  -0.0064  -0.0224   0.9771  -0.6391
  17 H   :2px    0.0001  -0.0041   0.0005   0.0122   0.0007  -0.0040   0.0369
  18 H   :2py   -0.0005   0.0068   0.0070  -0.0015   0.0142   0.0026  -0.0493
  19 H   :2pz    0.0013  -0.0157  -0.0097  -0.0033   0.0076   0.0019   0.1250

 Molecular orbitals for symmetry species  2
 ------------------------------------------

    Orbital         1        2        3        4        5        6
   1 O   :1s     0.7037  -0.1541  -0.0470   0.0360   0.0707   0.0173
   2 O   :1s     0.0198   0.3521   0.1093  -0.0877  -0.1633   0.0015
   3 O   :1s    -0.0108   0.3627   0.1847  -0.1420  -0.5678  -0.4238
   4 O   :2px   -0.0005   0.0674   0.0313  -0.0251   0.4561  -0.2485
   5 O   :2py   -0.0005  -0.0378   0.3644   0.2409   0.0259   0.0993
   6 O   :2pz    0.0013   0.0819  -0.1788   0.3762  -0.0619  -0.2088
   7 O   :2px    0.0041   0.0198   0.0350  -0.0298   0.5237  -0.3476
   8 O   :2py    0.0003  -0.0146   0.2331   0.1810   0.0569   0.1657
   9 O   :2pz   -0.0009   0.0358  -0.0911   0.2486  -0.1233  -0.3832
  10 O   :3d2-  -0.0000  -0.0006  -0.0145  -0.0098  -0.0063  -0.0007
  11 O   :3d1-  -0.0002  -0.0046   0.0172   0.0022   0.0038   0.0018
  12 O   :3d0    0.0007   0.0079  -0.0044   0.0178  -0.0137  -0.0046
  13 O   :3d1+   0.0002   0.0038  -0.0012   0.0031   0.0164  -0.0068
  14 O   :3d2+  -0.0007  -0.0041   0.0034   0.0037   0.0140  -0.0065
  15 H   :1s    -0.0001   0.1366  -0.1416   0.1283   0.0257   0.1037
  16 H   :1s     0.0011   0.0177  -0.0977   0.0834   0.4235   1.1727
  17 H   :2px    0.0001  -0.0021   0.0042  -0.0009   0.0166  -0.0047
  18 H   :2py   -0.0005   0.0076   0.0049   0.0135   0.0003  -0.0033
  19 H   :2pz    0.0012  -0.0180   0.0097  -0.0004  -0.0033   0.0001



 >>>> Total CPU  time used in SIRIUS :      2.43 seconds
 >>>> Total wall time used in SIRIUS :      2.45 seconds

 
     Date and time (Linux)  : Sun Sep  8 20:53:25 2013
     Host name              : lpqlx131.ups-tlse.fr                    


                     .---------------------------------------.
                     | End of Wave Function Section (SIRIUS) |
                     `---------------------------------------'

 >>>> Total CPU  time used in DALTON:   2.45 seconds
 >>>> Total wall time used in DALTON:   2.47 seconds

 
     Date and time (Linux)  : Sun Sep  8 20:53:25 2013
     Host name              : lpqlx131.ups-tlse.fr                    
