

     ************************************************************************
     *************** Dalton - An Electronic Structure Program ***************
     ************************************************************************

    This is output from DALTON release Dalton2017.alpha (2017)
         ( Web site: http://daltonprogram.org )

   ----------------------------------------------------------------------------

    NOTE:
     
    Dalton is an experimental code for the evaluation of molecular
    properties using (MC)SCF, DFT, CI, and CC wave functions.
    The authors accept no responsibility for the performance of
    the code or for the correctness of the results.
     
    The code (in whole or part) is provided under a licence and
    is not to be reproduced for further distribution without
    the written permission of the authors or their representatives.
     
    See the home page "http://daltonprogram.org" for further information.
     
    If results obtained with this code are published,
    the appropriate citations would be both of:
     
       K. Aidas, C. Angeli, K. L. Bak, V. Bakken, R. Bast,
       L. Boman, O. Christiansen, R. Cimiraglia, S. Coriani,
       P. Dahle, E. K. Dalskov, U. Ekstroem,
       T. Enevoldsen, J. J. Eriksen, P. Ettenhuber, B. Fernandez,
       L. Ferrighi, H. Fliegl, L. Frediani, K. Hald, A. Halkier,
       C. Haettig, H. Heiberg, T. Helgaker, A. C. Hennum,
       H. Hettema, E. Hjertenaes, S. Hoest, I.-M. Hoeyvik,
       M. F. Iozzi, B. Jansik, H. J. Aa. Jensen, D. Jonsson,
       P. Joergensen, J. Kauczor, S. Kirpekar,
       T. Kjaergaard, W. Klopper, S. Knecht, R. Kobayashi, H. Koch,
       J. Kongsted, A. Krapp, K. Kristensen, A. Ligabue,
       O. B. Lutnaes, J. I. Melo, K. V. Mikkelsen, R. H. Myhre,
       C. Neiss, C. B. Nielsen, P. Norman, J. Olsen,
       J. M. H. Olsen, A. Osted, M. J. Packer, F. Pawlowski,
       T. B. Pedersen, P. F. Provasi, S. Reine, Z. Rinkevicius,
       T. A. Ruden, K. Ruud, V. Rybkin, P. Salek, C. C. M. Samson,
       A. Sanchez de Meras, T. Saue, S. P. A. Sauer,
       B. Schimmelpfennig, K. Sneskov, A. H. Steindal,
       K. O. Sylvester-Hvid, P. R. Taylor, A. M. Teale,
       E. I. Tellgren, D. P. Tew, A. J. Thorvaldsen, L. Thoegersen,
       O. Vahtras, M. A. Watson, D. J. D. Wilson, M. Ziolkowski
       and H. Agren,
       "The Dalton quantum chemistry program system",
       WIREs Comput. Mol. Sci. 2014, 4:269–284 (doi: 10.1002/wcms.1172)
     
    and
     
       Dalton, a Molecular Electronic Structure Program,
       Release Dalton2017.alpha (2017), see http://daltonprogram.org
   ----------------------------------------------------------------------------

    Authors in alphabetical order (major contribution(s) in parenthesis):

  Kestutis Aidas,           Vilnius University,           Lithuania   (QM/MM)
  Celestino Angeli,         University of Ferrara,        Italy       (NEVPT2)
  Keld L. Bak,              UNI-C,                        Denmark     (AOSOPPA, non-adiabatic coupling, magnetic properties)
  Vebjoern Bakken,          University of Oslo,           Norway      (DALTON; geometry optimizer, symmetry detection)
  Radovan Bast,             UiT The Arctic U. of Norway,  Norway      (DALTON installation and execution frameworks)
  Pablo Baudin,             University of Valencia,       Spain       (Cholesky excitation energies)
  Linus Boman,              NTNU,                         Norway      (Cholesky decomposition and subsystems)
  Ove Christiansen,         Aarhus University,            Denmark     (CC module)
  Renzo Cimiraglia,         University of Ferrara,        Italy       (NEVPT2)
  Sonia Coriani,            University of Trieste,        Italy       (CC module, MCD in RESPONS)
  Janusz Cukras,            University of Trieste,        Italy       (MChD in RESPONS)
  Paal Dahle,               University of Oslo,           Norway      (Parallelization)
  Erik K. Dalskov,          UNI-C,                        Denmark     (SOPPA)
  Thomas Enevoldsen,        Univ. of Southern Denmark,    Denmark     (SOPPA)
  Janus J. Eriksen,         Aarhus University,            Denmark     (Polarizable embedding model, TDA)
  Rasmus Faber,             University of Copenhagen,     Denmark     (Vib.avg. NMR with SOPPA, parallel AO-SOPPA)
  Berta Fernandez,          U. of Santiago de Compostela, Spain       (doublet spin, ESR in RESPONS)
  Lara Ferrighi,            Aarhus University,            Denmark     (PCM Cubic response)
  Heike Fliegl,             University of Oslo,           Norway      (CCSD(R12))
  Luca Frediani,            UiT The Arctic U. of Norway,  Norway      (PCM)
  Bin Gao,                  UiT The Arctic U. of Norway,  Norway      (Gen1Int library)
  Christof Haettig,         Ruhr-University Bochum,       Germany     (CC module)
  Kasper Hald,              Aarhus University,            Denmark     (CC module)
  Asger Halkier,            Aarhus University,            Denmark     (CC module)
  Frederik Beyer Hansen,    University of Copenhagen,     Denmark     (Parallel AO-SOPPA)
  Erik D. Hedegaard,        Univ. of Southern Denmark,    Denmark     (Polarizable embedding model, QM/MM)
  Hanne Heiberg,            University of Oslo,           Norway      (geometry analysis, selected one-electron integrals)
  Trygve Helgaker,          University of Oslo,           Norway      (DALTON; ABACUS, ERI, DFT modules, London, and much more)
  Alf Christian Hennum,     University of Oslo,           Norway      (Parity violation)
  Hinne Hettema,            University of Auckland,       New Zealand (quadratic response in RESPONS; SIRIUS supersymmetry)
  Eirik Hjertenaes,         NTNU,                         Norway      (Cholesky decomposition)
  Pi A. B. Haase,           University of Copenhagen,     Denmark     (Triplet AO-SOPPA)
  Maria Francesca Iozzi,    University of Oslo,           Norway      (RPA)
  Brano Jansik              Technical Univ. of Ostrava    Czech Rep.  (DFT cubic response)
  Hans Joergen Aa. Jensen,  Univ. of Southern Denmark,    Denmark     (DALTON; SIRIUS, RESPONS, ABACUS modules, London, and much more)
  Dan Jonsson,              UiT The Arctic U. of Norway,  Norway      (cubic response in RESPONS module)
  Poul Joergensen,          Aarhus University,            Denmark     (RESPONS, ABACUS, and CC modules)
  Maciej Kaminski,          University of Warsaw,         Poland      (CPPh in RESPONS)
  Joanna Kauczor,           Linkoeping University,        Sweden      (Complex polarization propagator (CPP) module)
  Sheela Kirpekar,          Univ. of Southern Denmark,    Denmark     (Mass-velocity & Darwin integrals)
  Wim Klopper,              KIT Karlsruhe,                Germany     (R12 code in CC, SIRIUS, and ABACUS modules)
  Stefan Knecht,            ETH Zurich,                   Switzerland (Parallel CI and MCSCF)
  Rika Kobayashi,           Australian National Univ.,    Australia   (DIIS in CC, London in MCSCF)
  Henrik Koch,              NTNU,                         Norway      (CC module, Cholesky decomposition)
  Jacob Kongsted,           Univ. of Southern Denmark,    Denmark     (Polarizable embedding model, QM/MM)
  Andrea Ligabue,           University of Modena,         Italy       (CTOCD, AOSOPPA)
  Nanna H. List             Univ. of Southern Denmark,    Denmark     (Polarizable embedding model)
  Ola B. Lutnaes,           University of Oslo,           Norway      (DFT Hessian)
  Juan I. Melo,             University of Buenos Aires,   Argentina   (LRESC, Relativistic Effects on NMR Shieldings)
  Kurt V. Mikkelsen,        University of Copenhagen,     Denmark     (MC-SCRF and QM/MM)
  Rolf H. Myhre,            NTNU,                         Norway      (Cholesky, subsystems and ECC2)
  Christian Neiss,          Univ. Erlangen-Nuernberg,     Germany     (CCSD(R12))
  Christian B. Nielsen,     University of Copenhagen,     Denmark     (QM/MM)
  Patrick Norman,           Linkoeping University,        Sweden      (Cubic response and complex frequency response in RESPONS)
  Jeppe Olsen,              Aarhus University,            Denmark     (SIRIUS CI/density modules)
  Jogvan Magnus H. Olsen,   Univ. of Southern Denmark,    Denmark     (Polarizable embedding model, QM/MM)
  Anders Osted,             Copenhagen University,        Denmark     (QM/MM)
  Martin J. Packer,         University of Sheffield,      UK          (SOPPA)
  Filip Pawlowski,          Kazimierz Wielki University,  Poland      (CC3)
  Morten N. Pedersen,       Univ. of Southern Denmark,    Denmark     (Polarizable embedding model)
  Thomas B. Pedersen,       University of Oslo,           Norway      (Cholesky decomposition)
  Patricio F. Provasi,      University of Northeastern,   Argentina   (Analysis of coupling constants in localized orbitals)
  Zilvinas Rinkevicius,     KTH Stockholm,                Sweden      (open-shell DFT, ESR)
  Elias Rudberg,            KTH Stockholm,                Sweden      (DFT grid and basis info)
  Torgeir A. Ruden,         University of Oslo,           Norway      (Numerical derivatives in ABACUS)
  Kenneth Ruud,             UiT The Arctic U. of Norway,  Norway      (DALTON; ABACUS magnetic properties and much more)
  Pawel Salek,              KTH Stockholm,                Sweden      (DALTON; DFT code)
  Claire C. M. Samson       University of Karlsruhe       Germany     (Boys localization, r12 integrals in ERI)
  Alfredo Sanchez de Meras, University of Valencia,       Spain       (CC module, Cholesky decomposition)
  Trond Saue,               Paul Sabatier University,     France      (direct Fock matrix construction)
  Stephan P. A. Sauer,      University of Copenhagen,     Denmark     (SOPPA(CCSD), SOPPA prop., AOSOPPA, vibrational g-factors)
  Bernd Schimmelpfennig,    Forschungszentrum Karlsruhe,  Germany     (AMFI module)
  Kristian Sneskov,         Aarhus University,            Denmark     (Polarizable embedding model, QM/MM)
  Arnfinn H. Steindal,      UiT The Arctic U. of Norway,  Norway      (parallel QM/MM, Polarizable embedding model)
  Casper Steinmann,         Univ. of Southern Denmark,    Denmark     (QFIT, Polarizable embedding model)
  K. O. Sylvester-Hvid,     University of Copenhagen,     Denmark     (MC-SCRF)
  Peter R. Taylor,          VLSCI/Univ. of Melbourne,     Australia   (Symmetry handling ABACUS, integral transformation)
  Andrew M. Teale,          University of Nottingham,     England     (DFT-AC, DFT-D)
  David P. Tew,             University of Bristol,        England     (CCSD(R12))
  Olav Vahtras,             KTH Stockholm,                Sweden      (triplet response, spin-orbit, ESR, TDDFT, open-shell DFT)
  David J. Wilson,          La Trobe University,          Australia   (DFT Hessian and DFT magnetizabilities)
  Hans Agren,               KTH Stockholm,                Sweden      (SIRIUS module, RESPONS, MC-SCRF solvation model)
 --------------------------------------------------------------------------------

     Date and time (Linux)  : Thu Mar 22 14:33:36 2018
     Host name              : adm-101499                              

 * Work memory size             :    64000000 =  488.28 megabytes.

 * Directories for basis set searches:
   1) /home/NAT-SDU/dalibor/dalton/dalton/DALTON/test/cc2mm_atmvdw
   2) /home/NAT-SDU/dalibor/dalton/dalton/build/basis


Compilation information
-----------------------

 Who compiled             | dalibor
 Host                     | adm-101499
 System                   | Linux-4.4.0-75-generic
 CMake generator          | Unix Makefiles
 Processor                | x86_64
 64-bit integers          | OFF
 MPI                      | ON
 Fortran compiler         | /usr/bin/mpif90
 Fortran compiler version | GNU Fortran (Ubuntu 5.4.0-6ubuntu1~16.04.9) 5.4.0 
                          | 20160609
 C compiler               | /usr/bin/mpicc
 C compiler version       | gcc (Ubuntu 5.4.0-6ubuntu1~16.04.9) 5.4.0 20160609
 C++ compiler             | /usr/bin/mpicxx
 C++ compiler version     | unknown
 BLAS                     | /usr/lib/libblas.so
 LAPACK                   | /usr/lib/liblapack.so
 Static linking           | OFF
 Last Git revision        | 984eb062da25b587ece56079816e618e1efda2f3
 Git branch               | cc_dalibor
 Configuration time       | 2018-03-22 14:17:13.352905

 * Sequential calculation.


   Content of the .dal input file
 ----------------------------------

**DALTON
.RUN WAVEFUNCTION
*QM3
.QM3
.THRDIP
 1.0D-9
.MAXDIP
 180
.ATMVDW  # (Giving the Van der Waals sigma and epsilon parameters atomic specific)
 SIGMLT  # (Sigma_ij= sqrt[sigma_i*sigma_j]: Option 2: .SIGADD s_ij=1/2(s_i+s_j))
 EPSMLT  # (epsilon_ij=sqrt[epsilon_i*epsilon_j]: Option 2: .EPSADD)
**INTEGRALS
.DIPLEN
.NUCPOT
.THETA
.NELFLD
**WAVE FUNCTIONS
.CC
*SCF INP
.THRESH
1.0D-10
*CC INP
.FREEZE
 7 0
.CC2
.THRLEQ
 1.0D-8
.THRENR
 1.0D-8
.MAX IT
 200
.MAXRED
 600
.MXLRV
 200
*CCSLV
.CCMM
.ETOLSL
 1.0D-7
.TTOLSL
 1.0D-7
.LTOLSL
 1.0D-7
.MXSLIT
 200
*CCFOP
.DIPMOM
.QUADRU
.NONREL
*CCEXCI
.NCCEXC
 2
**END OF


   Content of the .mol file
 ----------------------------

ATOMBASIS
QM/MM WATER_1
------------------------
    5    0         1 1.00D-15
        6.0   6    Bas=STO-3G
C          -0.000011        1.204184       -0.241226   0   1
C          -0.000055       -1.179775        1.190184   0   2
C           0.000055       -0.014769       -0.917402   0   3
C          -0.000043        1.225561        1.151838   0   4
C          -0.000082        0.035394        1.873987   0   5
C           0.000048       -1.209960       -0.200235   0   6
        8.0   1    Bas=STO-3G
O           0.000001       -0.102091       -2.281945   0   7
        1.0   6    Bas=STO-3G
H          -0.000071        2.175812        1.667937   0   8
H          -0.000133        0.053625        2.954254   0   9
H           0.000124       -2.144132       -0.743618   0  10
H          -0.000068       -2.110990        1.739952   0  11
H           0.001282        0.792008       -2.639041   0  12
H          -0.000072        2.131743       -0.801250   0  13
   -0.669    10     Bas=MM
O          -0.418929       -1.660265       -4.781945   1   1
O          -4.002114        0.473829       -4.193504   2   1
O           4.342195       -0.872334       -4.151706   3   1
O           4.814551        2.386398       -3.676682   4   1
O          -0.893202        1.678174       -6.674935   5   1
O           0.326288        3.925564       -5.780771   6   1
O          -2.626564       -5.029064       -4.197251   7   1
O           3.402347        1.075004       -6.083000   8   1
O          -2.901438       -0.658868       -6.792613   9   1
O           0.000011       -5.991097       -4.781945  10   1
    0.3345   20     Bas=MM
H          -0.179685       -2.505377       -5.162322   1   2
H          -0.336975       -1.039749       -5.506087   1   3
H          -3.838459        1.406843       -4.056214   2   2
H          -4.906396        0.432394       -4.504486   2   3
H           4.063907       -0.374436       -4.920337   3   2
H           3.934742       -0.420264       -3.412950   3   3
H           5.472248        2.674706       -4.309505   4   2
H           4.254348        1.786929       -4.169589   4   3
H          -0.131046        1.268891       -7.084514   5   2
H          -0.541443        2.450293       -6.231966   5   3
H          -0.072098        3.888013       -4.911281   6   2
H           0.050144        4.770969       -6.134576   6   3
H          -2.610723       -4.593898       -5.049610   7   2
H          -1.858094       -5.599612       -4.205179   7   3
H           2.810562        1.398417       -6.762236   8   2
H           4.194348        0.820678       -6.556489   8   3
H          -2.070827       -0.323058       -7.129474   9   2
H          -3.045368       -0.171928       -5.981257   9   3
H           0.266280       -5.556879       -5.592314  10   2
H           0.658520       -6.672642       -4.647754  10   3


       *******************************************************************
       *********** Output from DALTON general input processing ***********
       *******************************************************************

 --------------------------------------------------------------------------------
   Overall default print level:    0
   Print level for DALTON.STAT:    1

    HERMIT 1- and 2-electron integral sections will be executed
    "Old" integral transformation used (limited to max 255 basis functions)
    Wave function sections will be executed (SIRIUS module)
 --------------------------------------------------------------------------------


 Changes of defaults for *QM3   :
 --------------------------------

 +------------------+
 |  WORD: | CHANGE: |
 +------------------+
 |    QM3 |       T |
 | MXDIIT |     180 |
 |  PRINT |       0 |
 | ATMVDW |       T |
 | EPSMLT |       T |
 | SIGMLT |       T |
 +------------------+
  Settings for determination of induced dipoles:
  Iterative Method is used
 +------------------+


    *************************************************************************
    *************** Output from MM potential input processing ***************
    *************************************************************************



 ------------------------------------------------------------------------
 | QM-sys type: | Systems:    | Model:  | Electric properties:          |
 ------------------------------------------------------------------------
 |          0   | [   0;   0] | SPC     |     No classical polarization |
 ------------------------------------------------------------------------


 ------------------------------------------------------------------------
 | MM-sys type: | Systems:    | Model:  | Electric properties:          |
 ------------------------------------------------------------------------
 |          1   | [   1;  10] | SPC_E01 | Isotropic polarizability:     |
 |              |             |         | alp( 1)=  9.7180              |
 ------------------------------------------------------------------------




   ****************************************************************************
   *************** Output of molecule and basis set information ***************
   ****************************************************************************


    The two title cards from your ".mol" input:
    ------------------------------------------------------------------------
 1: QM/MM WATER_1                                                           
 2: ------------------------                                                
    ------------------------------------------------------------------------



@ INFO - deprecated old .mol fixed format input has been detected:
    5    0         1 1.00D-15                                                   
@ INFO - this input format may not be supported in future releases.




  Coordinates are entered in Angstrom and converted to atomic units.
          - Conversion factor : 1 bohr = 0.52917721 A

  Atomic type no.    1
  --------------------
  Nuclear charge:   6.00000
  Number of symmetry independent centers:    6
  Number of basis sets to read;    2
  The basis set is "STO-3G" from the basis set library.
  Basis set file used for this atomic type with Z =   6 :
     "/home/NAT-SDU/dalibor/dalton/dalton/build/basis/STO-3G"

  Atomic type no.    2
  --------------------
  Nuclear charge:   8.00000
  Number of symmetry independent centers:    1
  Number of basis sets to read;    2
  The basis set is "STO-3G" from the basis set library.
  Basis set file used for this atomic type with Z =   8 :
     "/home/NAT-SDU/dalibor/dalton/dalton/build/basis/STO-3G"

  Atomic type no.    3
  --------------------
  Nuclear charge:   1.00000
  Number of symmetry independent centers:    6
  Number of basis sets to read;    2
  The basis set is "STO-3G" from the basis set library.
  Basis set file used for this atomic type with Z =   1 :
     "/home/NAT-SDU/dalibor/dalton/dalton/build/basis/STO-3G"

  Atomic type no.    4
  --------------------
  Nuclear charge:  -0.66900
  Number of symmetry independent centers:   10
  Number of basis sets to read;    2
  This is an MM atom without basis functions.

  Atomic type no.    5
  --------------------
  Nuclear charge:   0.33450
  Number of symmetry independent centers:   20
  Number of basis sets to read;    2
  This is an MM atom without basis functions.


                         SYMGRP: Point group information
                         -------------------------------

@    Point group: C1 


                                 Isotopic Masses
                                 ---------------

                           C          12.000000
                           C          12.000000
                           C          12.000000
                           C          12.000000
                           C          12.000000
                           C          12.000000
                           O          15.994915
                           H           1.007825
                           H           1.007825
                           H           1.007825
                           H           1.007825
                           H           1.007825
                           H           1.007825

                       Total mass:    94.041865 amu
                       Natural abundance:  93.270 %

 Center-of-mass coordinates (a.u.):    0.000001   -0.000004   -0.000371


  Atoms and basis sets
  --------------------

  Number of atom types :    6
  Total number of atoms:   53

  label    atoms   charge   prim   cont     basis
  ----------------------------------------------------------------------
  C           6    6.0000    15     5      [6s3p|2s1p]                                        
  O           1    8.0000    15     5      [6s3p|2s1p]                                        
  H           6    1.0000     3     1      [3s|1s]                                            
  O          10   -0.6690     0     0      Point Charge                                       
  H          20    0.3345     0     0      Point Charge                                       
  a          10    0.0000     0     0      Point Charge                                       
  ----------------------------------------------------------------------
  total:     53   50.0000   123    41
  ----------------------------------------------------------------------

  Threshold for neglecting AO integrals:  1.00D-15

  Max    interatomic separation is    5.6418 Angstrom (   10.6615 Bohr)
  between atoms   12 and    9, "H     " and "H     ".

  Min HX interatomic separation is    0.9628 Angstrom (    1.8194 Bohr)

  Min YX interatomic separation is    1.3673 Angstrom (    2.5839 Bohr)

  Max QM+MM interatomic separation is   11.5558 Angstrom (   21.8373 Bohr)
  between the QM+MM centers   43 and   35, "H     " and "H     ".




 Principal moments of inertia (u*A**2) and principal axes
 --------------------------------------------------------

   IA      88.947922         -0.000042    0.020185    0.999796
   IB     192.546345         -0.000000    0.999796   -0.020185
   IC     281.494265          1.000000    0.000001    0.000042


 Rotational constants
 --------------------

@    The molecule is planar.

               A                   B                   C

           5681.7404           2624.7136           1795.3439 MHz
            0.189522            0.087551            0.059886 cm-1


@  Nuclear repulsion energy :  271.498351688676 Hartree
      QM3 induced dipole vector converged in  12 iterations.
      Final norm2 of QM3 induced dipole moment vector:    0.126144522343058


    **************************************************************************
    ***************** The MM/MM classical interaction energy *****************
    **************************************************************************


 ------------------------------------------------------------------------
 |  Eelec = Sum_n,s[ (Q_n*Q_s)/|R_n - R_s| ]        |       -0.02355955 |
 |  Epol  = - 1/2*Sum_a[ Pind_a*E^site_a ]          |       -0.00570793 |
 |  Evdw  = Sum_a[ A_ma/|R_ma|^12 - B_ma/|R_ma|^6 ] |        0.00465966 |
 ------------------------------------------------------------------------
 |  E(MM/MM) = Eelec + Epol + Evdw                  |       -0.02460781 |
 ------------------------------------------------------------------------




     ************************************************************************
     *************** The "QM"/MM classical interaction energy ***************
     ************************************************************************


 ------------------------------------------------------------------------
 |  Eelec = Sum_n,s[ (Q_n*Q_s)/|R_n - R_s| ]        |        0.00435354 |
 |  Epol  = - 1/2*Sum_a[ Pind_a*E^(QMclassic)_a ]   |       -0.00006190 |
 |  Evdw  = Sum_a[ A_ma/|R_ma|^12 - B_ma/|R_ma|^6 ] |       -0.00092224 |
 ------------------------------------------------------------------------
 |  E("QM"/MM) = Eelec + Epol + Evdw                |        0.00336940 |
 ------------------------------------------------------------------------




                     .---------------------------------------.
                     | Starting in Integral Section (HERMIT) |
                     `---------------------------------------'



 ***************************************************************************************
 ****************** Output from **INTEGRALS input processing (HERMIT) ******************
 ***************************************************************************************



    *************************************************************************
    ****************** Output from HERMIT input processing ******************
    *************************************************************************


 Default print level:        1

 * Nuclear model: Point charge

 Calculation of one- and two-electron Hamiltonian integrals.

 The following one-electron property integrals are calculated as requested:
          - overlap integrals
          - dipole length integrals
          - traceless quadrupole moment integrals
          - Electric field at the nuclei
          - Potential energy at the nuclei

 Center of mass  (bohr):      0.000000608966     -0.000004491142     -0.000371459832
 Operator center (bohr):      0.000000000000      0.000000000000      0.000000000000
 Gauge origin    (bohr):      0.000000000000      0.000000000000      0.000000000000
 Dipole origin   (bohr):      0.000000000000      0.000000000000      0.000000000000


     ************************************************************************
     ************************** Output from HERINT **************************
     ************************************************************************



                      Nuclear contribution to dipole moments
                      --------------------------------------

                 au               Debye          C m (/(10**-30)

      x      0.00102423         0.00260334         0.00868380
      y      0.84120781         2.13813683         7.13205678
      z      2.01359767         5.11805445        17.07199202



 Threshold for neglecting two-electron integrals:  1.00D-15
 HERMIT - Number of two-electron integrals written:      355705 ( 95.9% )
 HERMIT - Megabytes written:                              4.074

  Time used in TWOINT     is       1.02 seconds
  Total CPU  time used in HERMIT:   1.17 seconds
  Total wall time used in HERMIT:   1.17 seconds


                        .----------------------------------.
                        | End of Integral Section (HERMIT) |
                        `----------------------------------'



                   .--------------------------------------------.
                   | Starting in Wave Function Section (SIRIUS) |
                   `--------------------------------------------'

NCCEXCI for singlet:    2

 *** Output from Huckel module :

     Using EWMO model:          F
     Using EHT  model:          T
     Number of Huckel orbitals each symmetry:   41

 Huckel EHT eigenvalues for symmetry :  1
          -20.707904     -11.414983     -11.395948     -11.395384     -11.377663
          -11.377425     -11.362837      -1.655860      -1.499264      -1.228158
           -1.114688      -0.912695      -0.843093      -0.746980      -0.745103
           -0.679452      -0.634034      -0.609918      -0.540090      -0.530872
           -0.472199      -0.459487      -0.444274      -0.434457      -0.410202
           -0.288672      -0.283322      -0.278429      -0.253731      -0.236640
           -0.227583      -0.214155      -0.212919      -0.205517      -0.202602
           -0.178134      -0.176753      -0.166156      -0.165818      -0.163629
           -0.160068

 **********************************************************************
 *SIRIUS* a direct, restricted step, second order MCSCF program       *
 **********************************************************************

 
     Date and time (Linux)  : Thu Mar 22 14:33:37 2018
     Host name              : adm-101499                              

 Title lines from ".mol" input file:
     QM/MM WATER_1                                                           
     ------------------------                                                

 Print level on unit LUPRI =   2 is   0
 Print level on unit LUW4  =   2 is   5

@    (Integral direct) CC calculation.

@    This is a combination run starting with
@              a restricted, closed shell Hartree-Fock calculation


 Initial molecular orbitals are obtained according to
 ".MOSTART EHT   " input option

@    QM part is embedded in an environment :

@         Model: QM3

     Wave function specification
     ============================

     For the specification of the Coupled Cluster: see later.

@    Wave function type        --- CC ---
@    Number of closed shell electrons          50
@    Number of electrons in active shells       0
@    Total charge of the molecule               0

@    Spin multiplicity and 2 M_S                1         0
@    Total number of symmetries                 1 (point group: C1 )
@    Reference state symmetry                   1 (irrep name : A  )

     Orbital specifications
     ======================
@    Abelian symmetry species          All |    1
@                                          |  A  
                                       --- |  ---
@    Occupied SCF orbitals              25 |   25
@    Secondary orbitals                 16 |   16
@    Total number of orbitals           41 |   41
@    Number of basis functions          41 |   41

     Optimization information
     ========================
@    Number of configurations                 1
@    Number of orbital rotations            400
     ------------------------------------------
@    Total number of variables              401

     Maximum number of Fock   iterations      0
     Maximum number of DIIS   iterations     60
     Maximum number of QC-SCF iterations     60
     Threshold for SCF convergence     1.00D-10


 Changes of defaults for CC:
 ---------------------------


 -Implicit frozen core calculation
 -Excitation energies calculated
 -Dipole moment calculated
 -Traceless quadrupole moment calculated
  


 ***********************************************
 ***** DIIS acceleration of SCF iterations *****
 ***********************************************

 C1-DIIS algorithm; max error vectors =    8

 Iter      Total energy       Solvation energy    Error norm    Delta(E)
 -----------------------------------------------------------------------------

Calculating AOSUPINT
     (Precalculated AO two-electron integrals are transformed to P-supermatrix elements.
      Threshold for discarding integrals :  1.00D-15 )
@  1  -300.552119495       0.00000000000        3.53729D+00   -3.01D+02
      Virial theorem: -V/T =      1.998607
@    MULPOP   C       0.09; C       0.19; C       0.47; C       0.19; C       0.11; C       0.09; O      -0.56; H      -0.15; H      -0.15; H      -0.15; 
@             H      -0.16; H       0.16; H      -0.14; 
   1  Level shift: doubly occupied orbital energies shifted by -2.00D-01
 -----------------------------------------------------------------------------
@  2  -300.935934403       0.00000000000        4.67827D-01   -3.84D-01
      Virial theorem: -V/T =      2.006583
@    MULPOP   C      -0.13; C      -0.03; C       0.14; C      -0.04; C      -0.05; C      -0.06; O      -0.20; H       0.04; H       0.04; H       0.06; 
@             H       0.04; H       0.15; H       0.04; 
   2  Level shift: doubly occupied orbital energies shifted by -5.00D-02
 -----------------------------------------------------------------------------
@  3  -300.954642406       0.00000000000        1.16324D-01   -1.87D-02
      Virial theorem: -V/T =      2.006138
@    MULPOP   C      -0.08; C      -0.05; C       0.14; C      -0.05; C      -0.08; C      -0.08; O      -0.30; H       0.06; H       0.06; H       0.08; 
@             H       0.06; H       0.21; H       0.04; 
   3  Level shift: doubly occupied orbital energies shifted by -1.25D-02
 -----------------------------------------------------------------------------
@  4  -300.956409114       0.00000000000        3.86100D-02   -1.77D-03
      Virial theorem: -V/T =      2.006116
@    MULPOP   C      -0.11; C      -0.05; C       0.14; C      -0.05; C      -0.08; C      -0.08; O      -0.27; H       0.06; H       0.06; H       0.08; 
@             H       0.06; H       0.20; H       0.05; 
 -----------------------------------------------------------------------------
@  5  -300.956644591       0.00000000000        1.22135D-02   -2.35D-04
      Virial theorem: -V/T =      2.006051
@    MULPOP   C      -0.10; C      -0.05; C       0.14; C      -0.05; C      -0.08; C      -0.08; O      -0.28; H       0.06; H       0.06; H       0.08; 
@             H       0.07; H       0.20; H       0.05; 
 -----------------------------------------------------------------------------
@  6  -300.956670799       0.00000000000        4.38252D-03   -2.62D-05
      Virial theorem: -V/T =      2.006043
@    MULPOP   C      -0.10; C      -0.05; C       0.14; C      -0.05; C      -0.08; C      -0.08; O      -0.28; H       0.06; H       0.06; H       0.08; 
@             H       0.06; H       0.20; H       0.05; 
 -----------------------------------------------------------------------------
@  7  -300.956673803       0.00000000000        5.64641D-04   -3.00D-06
      Virial theorem: -V/T =      2.006042
@    MULPOP   C      -0.10; C      -0.05; C       0.14; C      -0.05; C      -0.08; C      -0.08; O      -0.28; H       0.06; H       0.06; H       0.08; 
@             H       0.06; H       0.20; H       0.05; 
 -----------------------------------------------------------------------------
@  8  -300.956673852       0.00000000000        2.07974D-04   -4.93D-08
      Virial theorem: -V/T =      2.006042
@    MULPOP   C      -0.10; C      -0.05; C       0.14; C      -0.05; C      -0.08; C      -0.08; O      -0.28; H       0.06; H       0.06; H       0.08; 
@             H       0.06; H       0.20; H       0.05; 
 -----------------------------------------------------------------------------
@  9  -300.956673860       0.00000000000        9.45825D-05   -7.49D-09
      Virial theorem: -V/T =      2.006042
@    MULPOP   C      -0.10; C      -0.05; C       0.14; C      -0.05; C      -0.08; C      -0.08; O      -0.28; H       0.06; H       0.06; H       0.08; 
@             H       0.06; H       0.20; H       0.05; 
 -----------------------------------------------------------------------------
@ 10  -300.956673862       0.00000000000        3.56586D-05   -2.50D-09
      Virial theorem: -V/T =      2.006042
@    MULPOP   C      -0.10; C      -0.05; C       0.14; C      -0.05; C      -0.08; C      -0.08; O      -0.28; H       0.06; H       0.06; H       0.08; 
@             H       0.06; H       0.20; H       0.05; 
 -----------------------------------------------------------------------------
@ 11  -300.956673863       0.00000000000        7.14685D-06   -4.20D-10
      Virial theorem: -V/T =      2.006042
@    MULPOP   C      -0.10; C      -0.05; C       0.14; C      -0.05; C      -0.08; C      -0.08; O      -0.28; H       0.06; H       0.06; H       0.08; 
@             H       0.06; H       0.20; H       0.05; 
 -----------------------------------------------------------------------------
@ 12  -300.956673863       0.00000000000        2.84007D-06   -1.23D-11
      Virial theorem: -V/T =      2.006042
@    MULPOP   C      -0.10; C      -0.05; C       0.14; C      -0.05; C      -0.08; C      -0.08; O      -0.28; H       0.06; H       0.06; H       0.08; 
@             H       0.06; H       0.20; H       0.05; 
 -----------------------------------------------------------------------------
@ 13  -300.956673863       0.00000000000        6.14951D-07   -2.96D-12
      Virial theorem: -V/T =      2.006042
@    MULPOP   C      -0.10; C      -0.05; C       0.14; C      -0.05; C      -0.08; C      -0.08; O      -0.28; H       0.06; H       0.06; H       0.08; 
@             H       0.06; H       0.20; H       0.05; 
 -----------------------------------------------------------------------------
@ 14  -300.956673863       0.00000000000        1.77416D-07    1.14D-13
      Virial theorem: -V/T =      2.006042
@    MULPOP   C      -0.10; C      -0.05; C       0.14; C      -0.05; C      -0.08; C      -0.08; O      -0.28; H       0.06; H       0.06; H       0.08; 
@             H       0.06; H       0.20; H       0.05; 
 -----------------------------------------------------------------------------
@ 15  -300.956673863       0.00000000000        7.24150D-08    1.25D-12
      Virial theorem: -V/T =      2.006042
@    MULPOP   C      -0.10; C      -0.05; C       0.14; C      -0.05; C      -0.08; C      -0.08; O      -0.28; H       0.06; H       0.06; H       0.08; 
@             H       0.06; H       0.20; H       0.05; 
 -----------------------------------------------------------------------------
@ 16  -300.956673863       0.00000000000        2.12919D-08   -7.96D-13
      Virial theorem: -V/T =      2.006042
@    MULPOP   C      -0.10; C      -0.05; C       0.14; C      -0.05; C      -0.08; C      -0.08; O      -0.28; H       0.06; H       0.06; H       0.08; 
@             H       0.06; H       0.20; H       0.05; 
 -----------------------------------------------------------------------------
@ 17  -300.956673863       0.00000000000        7.47004D-09   -1.02D-12
      Virial theorem: -V/T =      2.006042
@    MULPOP   C      -0.10; C      -0.05; C       0.14; C      -0.05; C      -0.08; C      -0.08; O      -0.28; H       0.06; H       0.06; H       0.08; 
@             H       0.06; H       0.20; H       0.05; 
 -----------------------------------------------------------------------------
@ 18  -300.956673863       0.00000000000        3.29269D-09    9.09D-13
      Virial theorem: -V/T =      2.006042
@    MULPOP   C      -0.10; C      -0.05; C       0.14; C      -0.05; C      -0.08; C      -0.08; O      -0.28; H       0.06; H       0.06; H       0.08; 
@             H       0.06; H       0.20; H       0.05; 
 -----------------------------------------------------------------------------
@ 19  -300.956673863       0.00000000000        9.92355D-10    9.09D-13
      Virial theorem: -V/T =      2.006042
@    MULPOP   C      -0.10; C      -0.05; C       0.14; C      -0.05; C      -0.08; C      -0.08; O      -0.28; H       0.06; H       0.06; H       0.08; 
@             H       0.06; H       0.20; H       0.05; 
 -----------------------------------------------------------------------------
@ 20  -300.956673863       0.00000000000        3.68907D-10   -3.41D-13
      Virial theorem: -V/T =      2.006042
@    MULPOP   C      -0.10; C      -0.05; C       0.14; C      -0.05; C      -0.08; C      -0.08; O      -0.28; H       0.06; H       0.06; H       0.08; 
@             H       0.06; H       0.20; H       0.05; 
 -----------------------------------------------------------------------------
@ 21  -300.956673863       0.00000000000        1.37716D-10    1.25D-12
      Virial theorem: -V/T =      2.006042
@    MULPOP   C      -0.10; C      -0.05; C       0.14; C      -0.05; C      -0.08; C      -0.08; O      -0.28; H       0.06; H       0.06; H       0.08; 
@             H       0.06; H       0.20; H       0.05; 
 -----------------------------------------------------------------------------
@ 22  -300.956673863       0.00000000000        4.62689D-11   -4.55D-13

@ *** DIIS converged in  22 iterations !
@     Converged SCF energy, gradient:   -300.956673862904    4.63D-11
    - total time used in SIRFCK :              0.00 seconds


 *** SCF orbital energy analysis ***
    (incl. solvent contribution)

 Number of electrons :   50
 Orbital occupations :   25

 Sym       Hartree-Fock orbital energies

1 A     -20.28285539   -11.08051774   -11.02411832   -11.02104915   -11.01086426
        -11.00794944   -11.00684465    -1.31139299    -1.07412140    -0.94731368
         -0.92950232    -0.77237357    -0.74626198    -0.65203283    -0.60914448
         -0.57124036    -0.53307446    -0.52448426    -0.49708286    -0.46451438
         -0.43406414    -0.40058353    -0.39972660    -0.27356869    -0.23230231
          0.27756828     0.29121253     0.51875534     0.57366064     0.60791508
          0.65201310     0.69265530     0.72973219     0.74511085     0.75988471
          0.89070796     0.90067583     0.91524460     0.92781558     1.10401369
          1.16539754

    E(LUMO) :     0.27756828 au (symmetry 1)
  - E(HOMO) :    -0.23230231 au (symmetry 1)
  ------------------------------------------
    gap     :     0.50987059 au

 --- Writing SIRIFC interface file

 CPU and wall time for SCF :       0.096       0.093


                       .-----------------------------------.
                       | --- Final results from SIRIUS --- |
                       `-----------------------------------'


@    Spin multiplicity:           1
@    Spatial symmetry:            1 ( irrep  A   in C1  )
@    Total charge of molecule:    0

     QM/MM "QM3" calculation converged :

        Electrostatic energy:       0.000000000000
        Polarization energy:        0.000000000000
        van der Waals energy:      -0.000922236556
        Total QM/MM energy:         0.000000000000

@    Final HF energy:            -300.956673862904                 
@    Nuclear repulsion:           271.498351688676
@    Electronic energy:          -572.455025551580

@    Final gradient norm:           0.000000000046

 
     Date and time (Linux)  : Thu Mar 22 14:33:37 2018
     Host name              : adm-101499                              

File label for MO orbitals:  22Mar18   FOCKDIIS

 (Only coefficients > 0.0100 are printed.)

 Molecular orbitals for symmetry species 1  (A  )
 ------------------------------------------------

    Orbital         1        2        3        4        5        6        7
   1 C   :1s    -0.0000   0.0023  -0.0110  -0.0038   0.9920   0.0101   0.0065
   2 C   :1s     0.0002  -0.0069   0.0068  -0.0003   0.0368   0.0007   0.0005
   6 C   :1s     0.0000  -0.0004   0.0097   0.9920   0.0041  -0.0097  -0.0104
   7 C   :1s     0.0000   0.0002   0.0002   0.0363   0.0002  -0.0074  -0.0078
  11 C   :1s     0.0005   0.9923  -0.0005   0.0005  -0.0015   0.0006  -0.0013
  12 C   :1s    -0.0047   0.0348  -0.0002   0.0002  -0.0073   0.0000  -0.0075
  16 C   :1s    -0.0000  -0.0005  -0.9920   0.0097  -0.0101  -0.0088   0.0020
  17 C   :1s     0.0001   0.0002  -0.0363   0.0006  -0.0075  -0.0076  -0.0003
  21 C   :1s     0.0000  -0.0005  -0.0093   0.0109  -0.0103   0.9916   0.0266
  22 C   :1s     0.0000  -0.0001   0.0067  -0.0068  -0.0001   0.0367   0.0013
  26 C   :1s    -0.0000   0.0021   0.0024   0.0109  -0.0061  -0.0268   0.9917
  27 C   :1s     0.0003  -0.0070   0.0001  -0.0068   0.0000  -0.0007   0.0368
  31 O   :1s     0.9941   0.0004  -0.0000   0.0000  -0.0000   0.0000  -0.0000
  32 O   :1s     0.0266  -0.0045   0.0001  -0.0001   0.0004  -0.0001   0.0003

    Orbital         8        9       10       11       12       13       14
   1 C   :1s    -0.0223  -0.1027   0.1299   0.0823  -0.0989   0.0189  -0.0203
   2 C   :1s     0.0517   0.2591  -0.3483  -0.2221   0.2856  -0.0559   0.0745
   4 C   :2py   -0.0221  -0.0473  -0.0115   0.0706   0.0209  -0.1558   0.2024
   5 C   :2pz   -0.0163   0.0401  -0.0571   0.0819  -0.1236  -0.1730  -0.0903
   6 C   :1s    -0.0046  -0.1076  -0.1267  -0.0630  -0.1085   0.0369  -0.0209
   7 C   :1s     0.0110   0.2726   0.3417   0.1718   0.3164  -0.1102   0.0736
   9 C   :2py    0.0012   0.0557  -0.0100   0.0700  -0.0346   0.1453  -0.1780
  10 C   :2pz   -0.0050  -0.0288  -0.0661   0.1041   0.0773   0.1670   0.1558
  11 C   :1s    -0.0910  -0.0808  -0.0017   0.1302   0.0290  -0.1091  -0.0152
  12 C   :1s     0.2139   0.2105   0.0051  -0.3650  -0.0925   0.3389   0.0716
  14 C   :2py    0.0030   0.0049  -0.1519  -0.0014   0.2595   0.0665  -0.0402
  15 C   :2pz   -0.1019   0.0995  -0.0003  -0.0969   0.0266  -0.0201  -0.2423
  16 C   :1s    -0.0049  -0.1112   0.1214  -0.0690   0.0886   0.0823  -0.0023
  17 C   :1s     0.0118   0.2824  -0.3279   0.1881  -0.2588  -0.2448   0.0145
  19 C   :2py   -0.0013  -0.0563  -0.0160  -0.0666   0.0117  -0.1499   0.2052
  20 C   :2pz   -0.0054  -0.0288   0.0713   0.1068  -0.1387   0.0957   0.0577
  21 C   :1s    -0.0026  -0.1100  -0.0054  -0.1465   0.0214  -0.1048  -0.0044
  22 C   :1s     0.0061   0.2771   0.0146   0.3954  -0.0619   0.3077   0.0214
  24 C   :2py    0.0000   0.0007  -0.1239   0.0037  -0.2042  -0.0535  -0.0486
  25 C   :2pz   -0.0024  -0.0648   0.0002  -0.0209  -0.0100   0.0731   0.2021
  26 C   :1s    -0.0202  -0.0978  -0.1273   0.0836   0.0703   0.0747   0.0080
  27 C   :1s     0.0475   0.2455   0.3392  -0.2243  -0.2005  -0.2200  -0.0176
  29 C   :2py    0.0213   0.0503  -0.0021  -0.0690  -0.0392   0.1440  -0.1486
  30 C   :2pz   -0.0153   0.0391   0.0639   0.0771   0.1712  -0.1127  -0.1126
  31 O   :1s    -0.2212   0.0442  -0.0050  -0.0522   0.0071   0.0321   0.0074
  32 O   :1s     0.7869  -0.1692   0.0205   0.2103  -0.0340  -0.1387  -0.0320
  34 O   :2py    0.1030  -0.0266  -0.0309   0.0466   0.1365  -0.0490  -0.1676
  35 O   :2pz    0.0824   0.0290   0.0062  -0.0990  -0.0777   0.1915   0.2669
  36 H   :1s     0.0012   0.0519  -0.0920   0.0560  -0.1307  -0.1475   0.1499
  37 H   :1s     0.0006   0.0504   0.0037   0.1152  -0.0312   0.1638   0.1467
  38 H   :1s     0.0081   0.0410   0.0896  -0.0577  -0.1026  -0.1240   0.1131
  39 H   :1s     0.0011   0.0490   0.0930   0.0503   0.1581  -0.0659   0.1901
  40 H   :1s     0.1389  -0.0496  -0.0147   0.0942   0.1083  -0.1299  -0.2217
  41 H   :1s     0.0079   0.0475  -0.1018  -0.0622   0.1621  -0.0531   0.1852

    Orbital        15       16       17       18       19       20       21
   1 C   :1s     0.0203  -0.0493  -0.0047   0.0289  -0.0001   0.0307   0.0090
   2 C   :1s    -0.0678   0.1692   0.0210  -0.0929   0.0005  -0.1122  -0.0218
   3 C   :2px    0.0000   0.0001  -0.0009  -0.0008   0.2600   0.0032  -0.0024
   4 C   :2py   -0.0443   0.2603   0.0935   0.2404   0.0001   0.0052   0.1267
   5 C   :2pz    0.2238   0.1466  -0.1379  -0.2112  -0.0030  -0.0219  -0.2492
   6 C   :1s    -0.0625   0.0281  -0.0029  -0.0276  -0.0001  -0.0046   0.0027
   7 C   :1s     0.2014  -0.0963   0.0063   0.0880   0.0004   0.0163   0.0002
   8 C   :2px    0.0000   0.0000  -0.0004  -0.0004   0.1689   0.0027  -0.0024
   9 C   :2py    0.0173   0.2437   0.0780   0.2579  -0.0012   0.2278  -0.1753
  10 C   :2pz    0.1083   0.0876  -0.2001  -0.1904  -0.0026   0.2848   0.2240
  11 C   :1s    -0.0216   0.0596   0.0342  -0.0045   0.0002  -0.0196  -0.0098
  12 C   :1s     0.0935  -0.2066  -0.0969   0.0163  -0.0004   0.0641   0.0143
  13 C   :2px    0.0003   0.0006  -0.0019  -0.0011   0.4373   0.0039  -0.0015
  14 C   :2py   -0.1044  -0.2516   0.1624  -0.1080   0.0018   0.0129  -0.1828
  15 C   :2pz   -0.1431   0.0232  -0.3007  -0.0163   0.0003  -0.0792   0.1954
  16 C   :1s    -0.0408   0.0398  -0.0041   0.0206   0.0001  -0.0144  -0.0056
  17 C   :1s     0.1300  -0.1377   0.0096  -0.0645  -0.0004   0.0567   0.0194
  18 C   :2px    0.0000   0.0002  -0.0004  -0.0005   0.1755   0.0027  -0.0025
  19 C   :2py    0.0354  -0.0829  -0.2901   0.2441  -0.0013   0.1132  -0.2082
  20 C   :2pz   -0.1573  -0.2775   0.0927   0.2077   0.0029   0.0344   0.2811
  21 C   :1s     0.0518  -0.0429  -0.0264   0.0011   0.0000  -0.0085  -0.0037
  22 C   :1s    -0.1719   0.1425   0.0847  -0.0048  -0.0000   0.0225   0.0038
  23 C   :2px   -0.0000   0.0002  -0.0003  -0.0004   0.1449   0.0027  -0.0025
  24 C   :2py   -0.1278  -0.1953   0.1788  -0.1038   0.0028  -0.2404   0.2154
  25 C   :2pz   -0.2323  -0.0062  -0.2616  -0.0414  -0.0003  -0.2587  -0.2401
  26 C   :1s     0.0738  -0.0249  -0.0008  -0.0154   0.0003   0.0007   0.0119
  27 C   :1s    -0.2456   0.0799   0.0082   0.0458  -0.0010   0.0119  -0.0481
  28 C   :2px   -0.0008   0.0007  -0.0007  -0.0010   0.2437   0.0036  -0.0021
  29 C   :2py    0.1520  -0.0002  -0.2602   0.2620  -0.0001  -0.1125   0.1614
  30 C   :2pz    0.0542  -0.1744   0.1496   0.1946   0.0031  -0.2930  -0.2304
  31 O   :1s    -0.0277  -0.0371   0.0019   0.0048  -0.0000   0.0630  -0.0126
  32 O   :1s     0.1349   0.1798  -0.0105  -0.0253   0.0009  -0.3223   0.0676
  33 O   :2px    0.0005   0.0031  -0.0035  -0.0017   0.5856  -0.0003   0.0023
  34 O   :2py   -0.2601  -0.2055  -0.0649   0.0142  -0.0050   0.4106  -0.1384
  35 O   :2pz    0.2111  -0.1427   0.2739   0.0343  -0.0015   0.1419  -0.2626
  36 H   :1s     0.0272  -0.2335  -0.1793   0.2482   0.0000   0.1492  -0.0403
  37 H   :1s    -0.2543   0.0614  -0.1814  -0.0402  -0.0003  -0.2498  -0.2500
  38 H   :1s    -0.2176   0.1094   0.1300  -0.2492  -0.0018   0.2244  -0.0499
  39 H   :1s     0.1232  -0.1779  -0.1421  -0.2352  -0.0000  -0.0425   0.2804
  40 H   :1s    -0.2562  -0.0475  -0.1671   0.0039  -0.0029   0.2117   0.0409
  41 H   :1s    -0.1585   0.2094   0.1425   0.2429   0.0016  -0.0404   0.2555

    Orbital        22       23       24       25       26       27       28
   1 C   :1s     0.0109   0.0183   0.0000   0.0000   0.0000   0.0001   0.0002
   2 C   :1s    -0.0390  -0.0659  -0.0000  -0.0002  -0.0001  -0.0006  -0.0010
   3 C   :2px    0.1744  -0.1037   0.4846  -0.3113  -0.5798  -0.2549  -0.5096
   4 C   :2py    0.1345   0.2212   0.0002   0.0001  -0.0001   0.0004   0.0007
   5 C   :2pz    0.1029   0.1722  -0.0000   0.0002  -0.0001   0.0003   0.0000
   7 C   :1s    -0.0115  -0.0185   0.0001  -0.0001  -0.0005   0.0002   0.0021
   8 C   :2px    0.2784  -0.1675  -0.4729   0.1555  -0.5892  -0.3174   0.5210
   9 C   :2py   -0.0963  -0.1557  -0.0000  -0.0001  -0.0000  -0.0002  -0.0006
  10 C   :2pz   -0.0346  -0.0576  -0.0002  -0.0000   0.0002  -0.0005  -0.0009
  12 C   :1s     0.0226   0.0390   0.0001   0.0004  -0.0002   0.0015   0.0039
  13 C   :2px   -0.0425   0.0291   0.0184  -0.4205   0.0543   0.6693   0.5527
  14 C   :2py   -0.1485  -0.2429  -0.0004  -0.0004   0.0005  -0.0001  -0.0008
  15 C   :2pz   -0.0810  -0.1379   0.0001  -0.0003  -0.0002  -0.0004  -0.0016
  16 C   :1s    -0.0081  -0.0135   0.0000  -0.0000  -0.0000  -0.0000  -0.0001
  17 C   :1s     0.0256   0.0429  -0.0001   0.0001   0.0001   0.0000   0.0008
  18 C   :2px    0.2943  -0.1772   0.4276   0.2304   0.5637  -0.3784   0.5055
  19 C   :2py   -0.0912  -0.1480   0.0001   0.0000  -0.0000   0.0001   0.0004
  20 C   :2pz   -0.0736  -0.1239   0.0001  -0.0001  -0.0001  -0.0002  -0.0004
  23 C   :2px    0.3349  -0.2023  -0.0417   0.4914   0.0201   0.6497  -0.5110
  24 C   :2py    0.0959   0.1548  -0.0001   0.0001  -0.0002  -0.0001   0.0001
  25 C   :2pz    0.0394   0.0650  -0.0001   0.0001  -0.0001  -0.0001  -0.0000
  26 C   :1s    -0.0074  -0.0125  -0.0002  -0.0002  -0.0000   0.0001   0.0004
  27 C   :1s     0.0251   0.0424   0.0002   0.0004   0.0007  -0.0009  -0.0027
  28 C   :2px    0.1554  -0.0922  -0.4517  -0.3527   0.5449  -0.3186  -0.5318
  29 C   :2py    0.1202   0.1955  -0.0002   0.0003  -0.0000  -0.0007  -0.0013
  30 C   :2pz    0.0113   0.0189  -0.0001  -0.0005   0.0003   0.0005  -0.0001
  31 O   :1s     0.0296   0.0509   0.0000   0.0005  -0.0000   0.0000   0.0004
  32 O   :1s    -0.1580  -0.2705  -0.0000  -0.0021   0.0002  -0.0004  -0.0029
  33 O   :2px   -0.5187   0.3134  -0.0218   0.4784  -0.0232  -0.2469  -0.1530
  34 O   :2py    0.2302   0.3881   0.0000   0.0018  -0.0000  -0.0006  -0.0018
  35 O   :2pz    0.1514   0.2576  -0.0001   0.0021  -0.0001  -0.0015  -0.0025
  36 H   :1s    -0.1182  -0.1938   0.0001  -0.0000   0.0001  -0.0002  -0.0007
  37 H   :1s     0.0446   0.0741  -0.0000   0.0000  -0.0001  -0.0001   0.0001
  38 H   :1s    -0.1123  -0.1827   0.0007   0.0004  -0.0009   0.0004   0.0005
  39 H   :1s     0.0672   0.1082   0.0001   0.0000   0.0003  -0.0001  -0.0015
  40 H   :1s     0.1019   0.1700   0.0001   0.0003  -0.0002   0.0004   0.0023
  41 H   :1s     0.0566   0.0906   0.0001  -0.0000  -0.0001  -0.0000  -0.0004

    Orbital        29       30       31       32       33       34       35
   1 C   :1s    -0.0213   0.0502  -0.0132   0.0241   0.1988   0.0232   0.0507
   2 C   :1s     0.1535  -0.3051   0.0886  -0.1400  -1.2742  -0.1605  -0.3300
   4 C   :2py    0.1684  -0.3966   0.4030   0.1054   0.0387   0.2202  -0.1845
   5 C   :2pz   -0.2032   0.0046  -0.2921   0.2234   0.1215   0.2501  -0.2988
   6 C   :1s    -0.0518   0.0107   0.0338  -0.0274   0.0049   0.1417   0.1439
   7 C   :1s     0.3201  -0.0761  -0.2217   0.1631  -0.0435  -0.9085  -0.9332
   9 C   :2py   -0.2219   0.0312   0.4528   0.2762  -0.1414  -0.1157   0.2279
  10 C   :2pz   -0.0196  -0.2557  -0.3515   0.0393   0.0321  -0.2642   0.2140
  11 C   :1s    -0.0787  -0.0083  -0.0158  -0.0293  -0.1528  -0.0778   0.0892
  12 C   :1s     0.4203   0.0291   0.0706   0.1927   0.9409   0.5055  -0.5566
  14 C   :2py   -0.0840  -0.2137   0.2651   0.0604   0.2843   0.0540   0.2978
  15 C   :2pz   -0.4997  -0.1115  -0.3454   0.2642  -0.0101   0.0953  -0.0215
  16 C   :1s    -0.0515   0.0307  -0.0027  -0.0377  -0.1094   0.1166  -0.1194
  17 C   :1s     0.3196  -0.2031   0.0161   0.2412   0.6865  -0.7468   0.7883
  19 C   :2py    0.1774  -0.3485   0.2243   0.3860   0.0723   0.1640   0.0591
  20 C   :2pz   -0.0310  -0.2799  -0.2276   0.2686  -0.2334  -0.2911  -0.0326
  21 C   :1s    -0.0286   0.0465   0.0288   0.0080   0.0260  -0.2006   0.0075
  22 C   :1s     0.1847  -0.2935  -0.1878  -0.0405  -0.1543   1.2867  -0.0546
  24 C   :2py   -0.0243  -0.1213   0.2274   0.2176  -0.1987  -0.0206  -0.3931
  25 C   :2pz    0.1199  -0.3357  -0.4056   0.2888  -0.0954   0.0155   0.1110
  26 C   :1s    -0.0148   0.0543   0.0141   0.0990   0.0387   0.0008  -0.1680
  27 C   :1s     0.1068  -0.3315  -0.0907  -0.6280  -0.2325  -0.0158   1.0847
  29 C   :2py   -0.2742  -0.0810   0.3499   0.3299  -0.1133  -0.1905   0.0285
  30 C   :2pz   -0.1634  -0.0170  -0.1756   0.3352   0.1838   0.2894   0.1476
  31 O   :1s     0.1022   0.0665   0.0178   0.0305   0.0097   0.0166  -0.0051
  32 O   :1s    -0.6602  -0.4429  -0.1086  -0.2104  -0.0488  -0.1081   0.0231
  34 O   :2py   -0.4050  -0.4517   0.0358  -0.3703   0.1594  -0.0612  -0.2141
  35 O   :2pz   -0.3743   0.1310  -0.3087   0.2896  -0.4424  -0.0860   0.2642
  36 H   :1s    -0.3263   0.5652  -0.1019  -0.5730  -0.3115   0.3630  -0.3911
  37 H   :1s    -0.2188   0.5193   0.5028  -0.2538   0.1831  -0.6481  -0.0743
  38 H   :1s    -0.4404   0.0830   0.2574   0.7703   0.1200  -0.0285  -0.4436
  39 H   :1s    -0.3792   0.1903   0.6893   0.1136  -0.1208   0.4793   0.5224
  40 H   :1s     0.5454   0.6876  -0.1410   0.5447  -0.3597   0.0657   0.2285
  41 H   :1s    -0.4140   0.4440  -0.5340   0.0565   0.6717   0.0014   0.1408

  Total CPU  time used in SIRIUS :   0.11 seconds
  Total wall time used in SIRIUS :   0.11 seconds

 
     Date and time (Linux)  : Thu Mar 22 14:33:37 2018
     Host name              : adm-101499                              

 NOTE:    1 informational messages have been issued.
 Check output, result, and error files for "INFO".


                     .---------------------------------------.
                     | End of Wave Function Section (SIRIUS) |
                     `---------------------------------------'



                    .------------------------------------------.
                    | Starting in Coupled Cluster Section (CC) |
                    `------------------------------------------'

  

 *******************************************************************************
 *******************************************************************************
 *                                                                             *
 *                                                                             *
 *                    START OF COUPLED CLUSTER CALCULATION                     *
 *                                                                             *
 *                                                                             *
 *******************************************************************************
 *******************************************************************************


  I am freezing!
 Freezing HF-orbital   1 of symmetry   1 and with orbital energy  -20.2829
 Freezing HF-orbital   2 of symmetry   1 and with orbital energy  -11.0805
 Freezing HF-orbital   3 of symmetry   1 and with orbital energy  -11.0241
 Freezing HF-orbital   4 of symmetry   1 and with orbital energy  -11.0210
 Freezing HF-orbital   5 of symmetry   1 and with orbital energy  -11.0109
 Freezing HF-orbital   6 of symmetry   1 and with orbital energy  -11.0079
 Freezing HF-orbital   7 of symmetry   1 and with orbital energy  -11.0068
 In total frozen-core per symmetry-class:  7
 


 CCR12 ANSATZ =   0

 CCR12 APPROX =   0

   

 *******************************************************************
 *                                                                 *
 *----------                                             >---------*
 *---------- OUTPUT FROM COUPLED CLUSTER ENERGY PROGRAM  >---------*
 *----------                                             >---------*
 *                                                                 *
 *******************************************************************


             The Direct Coupled Cluster Energy Program
             -----------------------------------------


          Number of t1 amplitudes                 :       288
          Number of t2 amplitudes                 :     41616
          Total number of amplitudes in ccsd      :     41904

 Iter.  1: Coupled cluster MP2   energy :    -301.3378404860902151
 Iter.  1: Coupled cluster CC2   energy :    -301.3377305563678306
 Iter.  2: Coupled cluster CC2   energy :    -301.3398266439152167
 Iter.  3: Coupled cluster CC2   energy :    -301.3403918127514203
 Iter.  4: Coupled cluster CC2   energy :    -301.3404848973387971
 Iter.  5: Coupled cluster CC2   energy :    -301.3404882779004765
 Iter.  6: Coupled cluster CC2   energy :    -301.3404898248873565
 Iter.  7: Coupled cluster CC2   energy :    -301.3404907680331348
 Iter.  8: Coupled cluster CC2   energy :    -301.3404912355022702
 Iter.  9: Coupled cluster CC2   energy :    -301.3404912043503145
 Iter. 10: Coupled cluster CC2   energy :    -301.3404911781992723
 Iter. 11: Coupled cluster CC2   energy :    -301.3404911725871784

 CC2   energy converged to within   0.10D-07 is         -301.340491172587
 Final 2-norm of the CC vector function:  1.96112440D-06
  Change in norm^2 of T-amplitudes in this solvent it.:   8.9970936509336366E-002




                   +--------------------------------------------+
                   ! Calculating singlet intermediates for CCLR !
                   +--------------------------------------------+



            E-intermediates calculated 
            Fock-intermediate calculated 


   

 *******************************************************************
 *                                                                 *
 *---- OUTPUT FROM COUPLED CLUSTER RESPONSE  -------------*
 *                                                                 *
 *----------    CALCULATION OF FIRST ORDER PROPERTIES    >---------*
 *                                                                 *
 *******************************************************************



                         +-------------------------------+
                         ! Coupled Cluster model is: CC2 !
                         +-------------------------------+

 RPA: call cceq_str
 RPA: exit cceq_str
  Change in norm^2 of L-amplitudes in this ccmm it.:  0.66707777991521877     
  Time used in LR=R       is       0.14 seconds
 Total <Lambda|H|CC> energy:   -301.34049116774412     
            The singles contribution is:            -0.0000000005
            The doubles contribution is:             0.0000000054
 CCFOP: call CC_D1AO to recalc the 1e Density
   

 *****************************************************************
 **** Output from Coupled Cluster/Molecular Mechanics program ****
 *****************************************************************


                         +-------------------------------+
                         ! Coupled Cluster model is: CC2 !
                         +-------------------------------+

      QM3 induced Dipole vector converged in  10 iterations.
      Final norm2 of QM3 induced dipole moment vector:    0.126484499229219


 E(QM/MM) contribution in iteration  0:            0.0026598616
 CC energy in the  current CCMM iteration:      -302.1113167755
 CC energy in the previous CCMM iteration:         0.0000000000
 Change in Total energy in this CCMM it.:         -0.302111E+03


 *****************************************************************
 ******* End of Coupled Cluster/Molecular Mechanics program ******
 *****************************************************************
  


             +--------------------------------------------------------+
             ! Unrelaxed  CC2    First-order one-electron properties: !
             +--------------------------------------------------------+



                            +-------------------------+
                            !  Electric Dipole Moment !
                            +-------------------------+



                          Total Molecular Dipole Moment
                          -----------------------------

                 au               Debye          C m (/(10**-30)

      x     -0.00430300        -0.01093712        -0.03648232
      y      0.37581583         0.95522849         3.18629927
      z     -0.22398822        -0.56932123        -1.89905120




                          +-----------------------------+
                          !  Electric Quadrupole Moment !
                          +-----------------------------+



                        Total Molecular quadrupole moment
                        ---------------------------------

                    X              Y              Z

               Column   1     Column   2     Column   3
       1      -2.99191740     0.01159755     0.00411354
       2       0.01159755     1.80664634    -3.78806583
       3       0.00411354    -3.78806583     1.18527106
    ==== End of matrix output ====
   

 *******************************************************************
 *                                                                 *
 *----------                                             >---------*
 *---------- OUTPUT FROM COUPLED CLUSTER ENERGY PROGRAM  >---------*
 *----------                                             >---------*
 *                                                                 *
 *******************************************************************


             The Direct Coupled Cluster Energy Program
             -----------------------------------------


          Number of t1 amplitudes                 :       288
          Number of t2 amplitudes                 :     41616
          Total number of amplitudes in ccsd      :     41904

 Iter.  1: Coupled cluster RSTAR energy :    -301.3404911725871784
 Iter.  1: Coupled cluster CC2   energy :    -301.3404908203290802
 Iter.  2: Coupled cluster CC2   energy :    -301.3404853283194029
 Iter.  3: Coupled cluster CC2   energy :    -301.3404850977205456
 Iter.  4: Coupled cluster CC2   energy :    -301.3404848454814555
 Iter.  5: Coupled cluster CC2   energy :    -301.3404848121895725
 Iter.  6: Coupled cluster CC2   energy :    -301.3404847412077174
 Iter.  7: Coupled cluster CC2   energy :    -301.3404847276389660
 Iter.  8: Coupled cluster CC2   energy :    -301.3404847232528709

 CC2   energy converged to within   0.10D-07 is         -301.340484723253
 Final 2-norm of the CC vector function:  1.19696957D-07
  Change in norm^2 of T-amplitudes in this solvent it.:  -1.8191919728391404E-005




                   +--------------------------------------------+
                   ! Calculating singlet intermediates for CCLR !
                   +--------------------------------------------+



            E-intermediates calculated 
            Fock-intermediate calculated 


   

 *******************************************************************
 *                                                                 *
 *---- OUTPUT FROM COUPLED CLUSTER RESPONSE  -------------*
 *                                                                 *
 *----------    CALCULATION OF FIRST ORDER PROPERTIES    >---------*
 *                                                                 *
 *******************************************************************



                         +-------------------------------+
                         ! Coupled Cluster model is: CC2 !
                         +-------------------------------+

 RPA: call cceq_str
 Vector nr.  1 of symmetry  1 found on file - RESTART SUCCESS
 Start vector is a CC2       L0  vector
 RPA: exit cceq_str
  Change in norm^2 of L-amplitudes in this ccmm it.:  -5.6316826415714338E-005
  Time used in LR=R       is       0.14 seconds
 Total <Lambda|H|CC> energy:   -301.34049091361254     
            The singles contribution is:            -0.0000033138
            The doubles contribution is:            -0.0000028766
 CCFOP: call CC_D1AO to recalc the 1e Density
   

 *****************************************************************
 **** Output from Coupled Cluster/Molecular Mechanics program ****
 *****************************************************************


                         +-------------------------------+
                         ! Coupled Cluster model is: CC2 !
                         +-------------------------------+

      QM3 induced Dipole vector converged in   6 iterations.
      Final norm2 of QM3 induced dipole moment vector:    0.126492497587000


 E(QM/MM) contribution in iteration  1:            0.0026667928
 CC energy in the  current CCMM iteration:      -302.1113168896
 CC energy in the previous CCMM iteration:      -302.1113167755
 Change in Total energy in this CCMM it.:         -0.114036E-06


 *****************************************************************
 ******* End of Coupled Cluster/Molecular Mechanics program ******
 *****************************************************************
  


             +--------------------------------------------------------+
             ! Unrelaxed  CC2    First-order one-electron properties: !
             +--------------------------------------------------------+



                            +-------------------------+
                            !  Electric Dipole Moment !
                            +-------------------------+



                          Total Molecular Dipole Moment
                          -----------------------------

                 au               Debye          C m (/(10**-30)

      x     -0.00379114        -0.00963611        -0.03214259
      y      0.37538058         0.95412219         3.18260905
      z     -0.22161648        -0.56329287        -1.87894277




                          +-----------------------------+
                          !  Electric Quadrupole Moment !
                          +-----------------------------+



                        Total Molecular quadrupole moment
                        ---------------------------------

                    X              Y              Z

               Column   1     Column   2     Column   3
       1      -2.99516847     0.01163483     0.00364286
       2       0.01163483     1.80025964    -3.79649055
       3       0.00364286    -3.79649055     1.19490883
    ==== End of matrix output ====
   

 *******************************************************************
 *                                                                 *
 *----------                                             >---------*
 *---------- OUTPUT FROM COUPLED CLUSTER ENERGY PROGRAM  >---------*
 *----------                                             >---------*
 *                                                                 *
 *******************************************************************


             The Direct Coupled Cluster Energy Program
             -----------------------------------------


          Number of t1 amplitudes                 :       288
          Number of t2 amplitudes                 :     41616
          Total number of amplitudes in ccsd      :     41904

 Iter.  1: Coupled cluster RSTAR energy :    -301.3404847232528709
 Iter.  1: Coupled cluster CC2   energy :    -301.3404847176418002

 CC2   energy converged to within   0.10D-07 is         -301.340484717642
 Final 2-norm of the CC vector function:  8.06082019D-07
  Change in norm^2 of T-amplitudes in this solvent it.:  -6.6887232710866051E-008




                   +--------------------------------------------+
                   ! Calculating singlet intermediates for CCLR !
                   +--------------------------------------------+



            E-intermediates calculated 
            Fock-intermediate calculated 


   

 *******************************************************************
 *                                                                 *
 *---- OUTPUT FROM COUPLED CLUSTER RESPONSE  -------------*
 *                                                                 *
 *----------    CALCULATION OF FIRST ORDER PROPERTIES    >---------*
 *                                                                 *
 *******************************************************************



                         +-------------------------------+
                         ! Coupled Cluster model is: CC2 !
                         +-------------------------------+

 RPA: call cceq_str
 Vector nr.  1 of symmetry  1 found on file - RESTART SUCCESS
 Start vector is a CC2       L0  vector
 RPA: exit cceq_str
  Change in norm^2 of L-amplitudes in this ccmm it.:  -4.9890437514577002E-007
  Time used in LR=R       is       0.14 seconds
 Total <Lambda|H|CC> energy:   -301.34049090813949     
            The singles contribution is:            -0.0000033173
            The doubles contribution is:            -0.0000028732
 CCFOP: call CC_D1AO to recalc the 1e Density
   

 *****************************************************************
 **** Output from Coupled Cluster/Molecular Mechanics program ****
 *****************************************************************


                         +-------------------------------+
                         ! Coupled Cluster model is: CC2 !
                         +-------------------------------+

      QM3 induced Dipole vector converged in   4 iterations.
      Final norm2 of QM3 induced dipole moment vector:    0.126492500983383


 E(QM/MM) contribution in iteration  2:            0.0026668244
 CC energy in the  current CCMM iteration:      -302.1113168849
 CC energy in the previous CCMM iteration:      -302.1113168896
 Change in Total energy in this CCMM it.:          0.470106E-08


 *****************************************************************
 ******* End of Coupled Cluster/Molecular Mechanics program ******
 *****************************************************************
  


             +--------------------------------------------------------+
             ! Unrelaxed  CC2    First-order one-electron properties: !
             +--------------------------------------------------------+



                            +-------------------------+
                            !  Electric Dipole Moment !
                            +-------------------------+



                          Total Molecular Dipole Moment
                          -----------------------------

                 au               Debye          C m (/(10**-30)

      x     -0.00379091        -0.00963553        -0.03214068
      y      0.37538408         0.95413109         3.18263874
      z     -0.22160634        -0.56326709        -1.87885676




                          +-----------------------------+
                          !  Electric Quadrupole Moment !
                          +-----------------------------+



                        Total Molecular quadrupole moment
                        ---------------------------------

                    X              Y              Z

               Column   1     Column   2     Column   3
       1      -2.99516974     0.01163473     0.00364254
       2       0.01163473     1.80027060    -3.79649864
       3       0.00364254    -3.79649864     1.19489914
    ==== End of matrix output ====
   

 *******************************************************************
 *                                                                 *
 *----------                                             >---------*
 *---------- OUTPUT FROM COUPLED CLUSTER ENERGY PROGRAM  >---------*
 *----------                                             >---------*
 *                                                                 *
 *******************************************************************


             The Direct Coupled Cluster Energy Program
             -----------------------------------------


          Number of t1 amplitudes                 :       288
          Number of t2 amplitudes                 :     41616
          Total number of amplitudes in ccsd      :     41904

 Iter.  1: Coupled cluster RSTAR energy :    -301.3404847176418002
 Iter.  1: Coupled cluster CC2   energy :    -301.3404846909155594
 Iter.  2: Coupled cluster CC2   energy :    -301.3404846873982592

 CC2   energy converged to within   0.10D-07 is         -301.340484687398
 Final 2-norm of the CC vector function:  1.27985590D-07
  Change in norm^2 of T-amplitudes in this solvent it.:  -4.3722547651836585E-008




                   +--------------------------------------------+
                   ! Calculating singlet intermediates for CCLR !
                   +--------------------------------------------+



            E-intermediates calculated 
            Fock-intermediate calculated 


   

 *******************************************************************
 *                                                                 *
 *---- OUTPUT FROM COUPLED CLUSTER RESPONSE  -------------*
 *                                                                 *
 *----------    CALCULATION OF FIRST ORDER PROPERTIES    >---------*
 *                                                                 *
 *******************************************************************



                         +-------------------------------+
                         ! Coupled Cluster model is: CC2 !
                         +-------------------------------+

 RPA: call cceq_str
 Vector nr.  1 of symmetry  1 found on file - RESTART SUCCESS
 Start vector is a CC2       L0  vector
 RPA: exit cceq_str
  Change in norm^2 of L-amplitudes in this ccmm it.:   2.1394332971880203E-008
  Time used in LR=R       is       0.18 seconds
 Total <Lambda|H|CC> energy:   -301.34049091349146     
            The singles contribution is:            -0.0000033370
            The doubles contribution is:            -0.0000028891
 CCFOP: call CC_D1AO to recalc the 1e Density
   

 *****************************************************************
 **** Output from Coupled Cluster/Molecular Mechanics program ****
 *****************************************************************


                         +-------------------------------+
                         ! Coupled Cluster model is: CC2 !
                         +-------------------------------+

      QM3 induced Dipole vector converged in   2 iterations.
      Final norm2 of QM3 induced dipole moment vector:    0.126492501259934


 E(QM/MM) contribution in iteration  3:            0.0026668277
 CC energy in the  current CCMM iteration:      -302.1113168903
 CC energy in the previous CCMM iteration:      -302.1113168849
 Change in Total energy in this CCMM it.:         -0.542178E-08




 ------------------------------------------------------------------------
            | --- The MM/MM classical interaction energy            --- |
 ------------------------------------------------------------------------
 |  Eelec = Sum_n,s[ (Q_n*Q_s)/|R_n - R_s| ]        |       -0.02355955 |
 ------------------------------------------------------------------------
 |  Epol  = - 1/2*Sum_a[ MYind_a*E^site_a ]         |       -0.00572355 |
 ------------------------------------------------------------------------
 |  Evdw  = Sum_a[ A_ma/|R_ma|^12 - B_ma/|R_ma|^6 ] |        0.00465966 |
 ------------------------------------------------------------------------
 |**************************************************|*******************|
 ------------------------------------------------------------------------
 |  E(MM/MM) = Eelec + Epol + Evdw                  |       -0.02462343 |
 ------------------------------------------------------------------------


 +======================================================================+
 |---------------Final output from CC2/MM energy program ---------------|
 +======================================================================+
 |      Eelec      |      Epol       |      Evdw       |    E(QM/MM)    |
 +----------------------------------------------------------------------+
 |    0.0036437945 |   -0.0000547302 |   -0.0009222366 |   0.0026668277 |
 +----------------------------------------------------------------------+
 +======================================================================+
 +----------------------------------------------------------------------+
 |  <L|H(vac)|CC>  | <H(qm)+H(qmmm)> | Delta E(mm/mm)  | E_rep          |
 +----------------------------------------------------------------------+
 | -302.1139837180 | -302.1113168903 |   -0.0000156200 |   0.0000000000 |
 +======================================================================+



  CCMM equations are converged in   3 outer iterations
  CCMM equations are converged in  60 inner iterations
 *****************************************************************
 ******* End of Coupled Cluster/Molecular Mechanics program ******
 *****************************************************************
  


             +--------------------------------------------------------+
             ! Unrelaxed  CC2    First-order one-electron properties: !
             +--------------------------------------------------------+



                            +-------------------------+
                            !  Electric Dipole Moment !
                            +-------------------------+



                          Total Molecular Dipole Moment
                          -----------------------------

                 au               Debye          C m (/(10**-30)

      x     -0.00379088        -0.00963546        -0.03214044
      y      0.37538438         0.95413186         3.18264131
      z     -0.22160502        -0.56326375        -1.87884564




                          +-----------------------------+
                          !  Electric Quadrupole Moment !
                          +-----------------------------+



                        Total Molecular quadrupole moment
                        ---------------------------------

                    X              Y              Z

               Column   1     Column   2     Column   3
       1      -2.99516979     0.01163471     0.00364249
       2       0.01163471     1.80027235    -3.79649891
       3       0.00364249    -3.79649891     1.19489743
    ==== End of matrix output ====
   

 *******************************************************************
 *                                                                 *
 *---------- OUTPUT FROM COUPLED CLUSTER LINEAR RESPONSE >---------*
 *                                                                 *
 *----------     CALCULATION OF EXCITATION ENERGIES      >---------*
 *                                                                 *
 *******************************************************************



                            +--------------------------+
                            !  CC2 Excitation Energies !
                            +--------------------------+


 --------------------------
 Symmetry class Nr.:     1
 Multiplicity      :     1
 --------------------------

 Length of Excitation vectors in this class is:     41904
 Converging for  2 roots.
 Vector nr.  1 of type RE  and symmetry  1 was not found on file.
 Start vector guessed from diagonal
 ... selected element no.273
 Vector nr.  2 of type RE  and symmetry  1 was not found on file.
 Start vector guessed from diagonal
 ... selected element no.274


 SYMMETRY CLASS NR.    1
 MULTIPLICITY          1


 CC2        right excitation energies:
 ====================================
 (conversion factor used: 1 au = 27.2113957 eV)

 Excitation no.       Hartree               eV 
 --------------       -------               --
         1            0.2173467627        5.9143062665
         2            0.2883489359        7.8463736809


 Total excited state energies for states of symmetry/spin    1    1
 Excitation no.       Energy (Hartree) 
 ------------------------------------- 
@@    1    1          -301.123144150797486
@@    1    2          -301.052141977607505


 Analysis of the Coupled Cluster Excitation Vector Number :  1
 -------------------------------------------------------------

          Excitation Energy :                             5.9143 eV


          CC_PRAM:Overall Contribution of the Different Components
          --------------------------------------------------------



          Single Excitation Contribution :              90.7897 %

          Double Excitation Contribution :               9.2103 %

          ||T1||/||T2||                  :               3.1396

          Norm of Total Amplitude Vector :               1.0000


 +=============================================================================+
 | symmetry|  orbital index  |   Excitation Numbers             |   Amplitude  |
 |  Index  |   a   b   i   j |      NAI      NBJ |     NAIBJ    |              |
 +=============================================================================+
 | 1   1   |   2      17     |      258          |              |    0.524102  |
 | 1   1   |   1      18     |      273          |              |    0.793845  |
 +-----------------------------------------------------------------------------+
 | 1 1 1 1 |   1   1  17  15 |      257      225 |        33121 |    0.066324  |
 | 1 1 1 1 |   2   1  18  15 |      274      225 |        37626 |    0.078087  |
 | 1 1 1 1 |   1   2  18  15 |      273      226 |        37354 |    0.068808  |
 | 1 1 1 1 |   3   1  17  17 |      259      257 |        33668 |    0.077084  |
 | 1 1 1 1 |   3   2  18  17 |      275      258 |        37933 |    0.086378  |
 | 1 1 1 1 |   2   3  18  17 |      274      259 |        37660 |    0.077855  |
 | 1 1 1 1 |   3   1  18  18 |      275      273 |        37948 |   -0.107659  |
 +=============================================================================+


          Norm of Printed Amplitude Vector :             0.9753

          Printed all single excitations greater than 0.190567

          Printed all double excitations greater than 0.060697


 Analysis of the Coupled Cluster Excitation Vector Number :  2
 -------------------------------------------------------------

          Excitation Energy :                             7.8464 eV


          CC_PRAM:Overall Contribution of the Different Components
          --------------------------------------------------------



          Single Excitation Contribution :              93.1782 %

          Double Excitation Contribution :               6.8218 %

          ||T1||/||T2||                  :               3.6958

          Norm of Total Amplitude Vector :               1.0000


 +=============================================================================+
 | symmetry|  orbital index  |   Excitation Numbers             |   Amplitude  |
 |  Index  |   a   b   i   j |      NAI      NBJ |     NAIBJ    |              |
 +=============================================================================+
 | 1   1   |   2      15     |      226          |              |   -0.275664  |
 | 1   1   |   2      18     |      274          |              |    0.869958  |
 +-----------------------------------------------------------------------------+
 | 1 1 1 1 |   2   2  15  12 |      226      178 |        25603 |    0.068338  |
 | 1 1 1 1 |   2   2  18  15 |      274      226 |        37627 |    0.076883  |
 | 1 1 1 1 |   3   1  18  17 |      275      257 |        37932 |    0.063576  |
 | 1 1 1 1 |   3   2  18  18 |      275      274 |        37949 |    0.065968  |
 +=============================================================================+


          Norm of Printed Amplitude Vector :             0.9229

          Printed all single excitations greater than 0.193058

          Printed all double excitations greater than 0.052237

 --------------------------
 Symmetry class Nr.:     1
 Multiplicity      :     3
 --------------------------

 Length of Excitation vectors in this class is:     83520
 No Excitation Energies calculated in this symmetry class
  

 *******************************************************************************
 *******************************************************************************
 *                                                                             *
 *                                                                             *
 *                   SUMMARY OF COUPLED CLUSTER CALCULATION                    *
 *                                                                             *
 *                                                                             *
 *******************************************************************************
 *******************************************************************************

             CC2 Total  energy:                  -302.1113168903                
             CC2 E(QM/MM)     :                     0.0026668277                
                                                                                
                                                                                
                                                                                
 +=============================================================================+
 |  sym. | Exci.  |        CC2        Excitation energies            | ||T1||  |
 |(spin, |        +------------------------------------------------------------+
 | spat) |        |     Hartree    |       eV.      |     cm-1       |    %    |
 +=============================================================================+
 | ^1A   |    1   |     0.2173468  |       5.91431  |     47702.100  |  90.79  |
 | ^1A   |    2   |     0.2883489  |       7.84637  |     63285.276  |  93.18  |
 +=============================================================================+
                                                                                
                                                                                
     Total energies in Hartree:                                                 
             1 ^1A       -301.1231441508                                        
             2 ^1A       -301.0521419776                                        

  1 a.u. =        27.21138 eV.  
  1 a.u. =    219474.62934 cm-1.
  

 *******************************************************************************
 *******************************************************************************
 *                                                                             *
 *                                                                             *
 *                      END OF COUPLED CLUSTER CALCULATION                     *
 *                                                                             *
 *                                                                             *
 *******************************************************************************
 *******************************************************************************


 CPU and wall time for CC :      27.812      27.937

 
     Date and time (Linux)  : Thu Mar 22 14:34:05 2018
     Host name              : adm-101499                              


                      .-------------------------------------.
                      | End of Coupled Cluster Section (CC) |
                      `-------------------------------------'

  Total CPU  time used in DALTON:  29.11 seconds
  Total wall time used in DALTON:  29.24 seconds

 
     Date and time (Linux)  : Thu Mar 22 14:34:05 2018
     Host name              : adm-101499                              
