

     ************************************************************************
     *************** Dalton - An Electronic Structure Program ***************
     ************************************************************************

    This is output from DALTON 2014.0
   ----------------------------------------------------------------------------
    NOTE:
     
    Dalton is an experimental code for the evaluation of molecular
    properties using (MC)SCF, DFT, CI, and CC wave functions.
    The authors accept no responsibility for the performance of
    the code or for the correctness of the results.
     
    The code (in whole or part) is provided under a licence and
    is not to be reproduced for further distribution without
    the written permission of the authors or their representatives.
     
    See the home page "http://daltonprogram.org" for further information.
     
    If results obtained with this code are published,
    the appropriate citations would be both of:
     
       K. Aidas, C. Angeli, K. L. Bak, V. Bakken, R. Bast,
       L. Boman, O. Christiansen, R. Cimiraglia, S. Coriani,
       J. Cukras, P. Dahle, E. K. Dalskov, U. Ekstroem,
       T. Enevoldsen, J. J. Eriksen, P. Ettenhuber, B. Fernandez,
       L. Ferrighi, H. Fliegl, L. Frediani, K. Hald, A. Halkier,
       C. Haettig, H. Heiberg, T. Helgaker, A. C. Hennum,
       H. Hettema, E. Hjertenaes, S. Hoest, I.-M. Hoeyvik,
       M. F. Iozzi, B. Jansik, H. J. Aa. Jensen, D. Jonsson,
       P. Joergensen, M. Kaminski, J. Kauczor, S. Kirpekar,
       T. Kjaergaard, W. Klopper, S. Knecht, R. Kobayashi, H. Koch,
       J. Kongsted, A. Krapp, K. Kristensen, A. Ligabue,
       O. B. Lutnaes, J. I. Melo, K. V. Mikkelsen, R. H. Myhre,
       C. Neiss, C. B. Nielsen, P. Norman, J. Olsen,
       J. M. H. Olsen, A. Osted, M. J. Packer, F. Pawlowski,
       T. B. Pedersen, P. F. Provasi, S. Reine, Z. Rinkevicius,
       T. A. Ruden, K. Ruud, V. Rybkin, P. Salek, C. C. M. Samson,
       A. Sanchez de Meras, T. Saue, S. P. A. Sauer,
       B. Schimmelpfennig, K. Sneskov, A. H. Steindal,
       K. O. Sylvester-Hvid, P. R. Taylor, A. M. Teale,
       E. I. Tellgren, D. P. Tew, A. J. Thorvaldsen, L. Thoegersen,
       O. Vahtras, M. A. Watson, D. J. D. Wilson, M. Ziolkowski
       and H. Agren,
       "The Dalton quantum chemistry program system",
       WIREs Comput. Mol. Sci. 2013. (doi: 10.1002/wcms.1172)
    
    and
    
       Dalton, a Molecular Electronic Structure Program,
       Release DALTON2014.0 (2014), see http://daltonprogram.org
   ----------------------------------------------------------------------------

    Authors in alphabetical order (major contribution(s) in parenthesis):

  Kestutis Aidas,           Vilnius University,           Lithuania   (QM/MM)
  Celestino Angeli,         University of Ferrara,        Italy       (NEVPT2)
  Keld L. Bak,              UNI-C,                        Denmark     (AOSOPPA, non-adiabatic coupling, magnetic properties)
  Vebjoern Bakken,          University of Oslo,           Norway      (DALTON; geometry optimizer, symmetry detection)
  Radovan Bast,             KTH Stockholm,                Sweden      (DALTON installation and execution frameworks)
  Pablo Baudin,             University of Valencia,       Spain       (Cholesky excitation energies)
  Linus Boman,              NTNU,                         Norway      (Cholesky decomposition and subsystems)
  Ove Christiansen,         Aarhus University,            Denmark     (CC module)
  Renzo Cimiraglia,         University of Ferrara,        Italy       (NEVPT2)
  Sonia Coriani,            University of Trieste,        Italy       (CC module, MCD in RESPONS)
  Janusz Cukras,            University of Trieste,        Italy       (MChD in RESPONS)
  Paal Dahle,               University of Oslo,           Norway      (Parallelization)
  Erik K. Dalskov,          UNI-C,                        Denmark     (SOPPA)
  Thomas Enevoldsen,        Univ. of Southern Denmark,    Denmark     (SOPPA)
  Janus J. Eriksen,         Aarhus University,            Denmark     (Polarizable embedding model, TDA)
  Berta Fernandez,          U. of Santiago de Compostela, Spain       (doublet spin, ESR in RESPONS)
  Lara Ferrighi,            Aarhus University,            Denmark     (PCM Cubic response)
  Heike Fliegl,             University of Oslo,           Norway      (CCSD(R12))
  Luca Frediani,            UiT The Arctic U. of Norway,  Norway      (PCM)
  Bin Gao,                  UiT The Arctic U. of Norway,  Norway      (Gen1Int library)
  Christof Haettig,         Ruhr-University Bochum,       Germany     (CC module)
  Kasper Hald,              Aarhus University,            Denmark     (CC module)
  Asger Halkier,            Aarhus University,            Denmark     (CC module)
  Erik D. Hedegaard,        Univ. of Southern Denmark,    Denmark     (Polarizable embedding model, QM/MM)
  Hanne Heiberg,            University of Oslo,           Norway      (geometry analysis, selected one-electron integrals)
  Trygve Helgaker,          University of Oslo,           Norway      (DALTON; ABACUS, ERI, DFT modules, London, and much more)
  Alf Christian Hennum,     University of Oslo,           Norway      (Parity violation)
  Hinne Hettema,            University of Auckland,       New Zealand (quadratic response in RESPONS; SIRIUS supersymmetry)
  Eirik Hjertenaes,         NTNU,                         Norway      (Cholesky decomposition)
  Maria Francesca Iozzi,    University of Oslo,           Norway      (RPA)
  Brano Jansik              Technical Univ. of Ostrava    Czech Rep.  (DFT cubic response)
  Hans Joergen Aa. Jensen,  Univ. of Southern Denmark,    Denmark     (DALTON; SIRIUS, RESPONS, ABACUS modules, London, and much more)
  Dan Jonsson,              UiT The Arctic U. of Norway,  Norway      (cubic response in RESPONS module)
  Poul Joergensen,          Aarhus University,            Denmark     (RESPONS, ABACUS, and CC modules)
  Maciej Kaminski,          University of Warsaw,         Poland      (CPPh in RESPONS)
  Joanna Kauczor,           Linkoeping University,        Sweden      (Complex polarization propagator (CPP) module)
  Sheela Kirpekar,          Univ. of Southern Denmark,    Denmark     (Mass-velocity & Darwin integrals)
  Wim Klopper,              KIT Karlsruhe,                Germany     (R12 code in CC, SIRIUS, and ABACUS modules)
  Stefan Knecht,            ETH Zurich,                   Switzerland (Parallel CI and MCSCF)
  Rika Kobayashi,           Australian National Univ.,    Australia   (DIIS in CC, London in MCSCF)
  Henrik Koch,              NTNU,                         Norway      (CC module, Cholesky decomposition)
  Jacob Kongsted,           Univ. of Southern Denmark,    Denmark     (Polarizable embedding model, QM/MM)
  Andrea Ligabue,           University of Modena,         Italy       (CTOCD, AOSOPPA)
  Nanna H. List             Univ. of Southern Denmark,    Denmark     (Polarizable embedding model)
  Ola B. Lutnaes,           University of Oslo,           Norway      (DFT Hessian)
  Juan I. Melo,             University of Buenos Aires,   Argentina   (LRESC, Relativistic Effects on NMR Shieldings)
  Kurt V. Mikkelsen,        University of Copenhagen,     Denmark     (MC-SCRF and QM/MM)
  Rolf H. Myhre,            NTNU,                         Norway      (Cholesky, subsystems and ECC2)
  Christian Neiss,          Univ. Erlangen-Nuernberg,     Germany     (CCSD(R12))
  Christian B. Nielsen,     University of Copenhagen,     Denmark     (QM/MM)
  Patrick Norman,           Linkoeping University,        Sweden      (Cubic response and complex response in RESPONS)
  Jeppe Olsen,              Aarhus University,            Denmark     (SIRIUS CI/density modules)
  Jogvan Magnus H. Olsen,   Univ. of Southern Denmark,    Denmark     (Polarizable embedding model, QM/MM)
  Anders Osted,             Copenhagen University,        Denmark     (QM/MM)
  Martin J. Packer,         University of Sheffield,      UK          (SOPPA)
  Filip Pawlowski,          Kazimierz Wielki University,  Poland      (CC3)
  Morten N. Pedersen,       Univ. of Southern Denmark,    Denmark     (Polarizable embedding model)
  Thomas B. Pedersen,       University of Oslo,           Norway      (Cholesky decomposition)
  Patricio F. Provasi,      University of Northeastern,   Argentina   (Analysis of coupling constants in localized orbitals)
  Zilvinas Rinkevicius,     KTH Stockholm,                Sweden      (open-shell DFT, ESR)
  Elias Rudberg,            KTH Stockholm,                Sweden      (DFT grid and basis info)
  Torgeir A. Ruden,         University of Oslo,           Norway      (Numerical derivatives in ABACUS)
  Kenneth Ruud,             UiT The Arctic U. of Norway,  Norway      (DALTON; ABACUS magnetic properties and much more)
  Pawel Salek,              KTH Stockholm,                Sweden      (DALTON; DFT code)
  Claire C. M. Samson       University of Karlsruhe       Germany     (Boys localization, r12 integrals in ERI)
  Alfredo Sanchez de Meras, University of Valencia,       Spain       (CC module, Cholesky decomposition)
  Trond Saue,               Paul Sabatier University,     France      (direct Fock matrix construction)
  Stephan P. A. Sauer,      University of Copenhagen,     Denmark     (SOPPA(CCSD), SOPPA prop., AOSOPPA, vibrational g-factors)
  Bernd Schimmelpfennig,    Forschungszentrum Karlsruhe,  Germany     (AMFI module)
  Kristian Sneskov,         Aarhus University,            Denmark     (Polarizable embedding model, QM/MM)
  Arnfinn H. Steindal,      UiT The Arctic U. of Norway,  Norway      (parallel QM/MM, Polarizable embedding model)
  Casper Steinmann,         Univ. of Southern Denmark,    Denmark     (QFIT, Polarizable embedding model)
  K. O. Sylvester-Hvid,     University of Copenhagen,     Denmark     (MC-SCRF)
  Peter R. Taylor,          VLSCI/Univ. of Melbourne,     Australia   (Symmetry handling ABACUS, integral transformation)
  Andrew M. Teale,          University of Nottingham,     England     (DFT-AC, DFT-D)
  David P. Tew,             University of Bristol,        England     (CCSD(R12))
  Olav Vahtras,             KTH Stockholm,                Sweden      (triplet response, spin-orbit, ESR, TDDFT, open-shell DFT)
  David J. Wilson,          La Trobe University,          Australia   (DFT Hessian and DFT magnetizabilities)
  Hans Agren,               KTH Stockholm,                Sweden      (SIRIUS module, RESPONS, MC-SCRF solvation model)
 --------------------------------------------------------------------------------

     Date and time (Linux)  : Sat Nov 29 00:52:10 2014
     Host name              : foeroyar                                

 * Work memory size             :    64000000 =  488.28 megabytes.

 * Directories for basis set searches:
   1) /home/magnus/Projects/dalton_devel/dalton/DALTON/test/convert
   2) /home/magnus/Projects/dalton_devel/dalton/build_release/basis


Compilation information
-----------------------

 Who compiled             | magnus
 Host                     | foeroyar
 System                   | Linux-3.17.3-200.fc20.x86_64
 CMake generator          | Unix Makefiles
 Processor                | x86_64
 64-bit integers          | OFF
 MPI                      | ON
 Fortran compiler         | /usr/local/bin/mpif90
 Fortran compiler version | GNU Fortran (GCC) 4.8.3 20140911 (Red Hat 4.8.3-7)
 C compiler               | /usr/local/bin/mpicc
 C compiler version       | gcc (GCC) 4.8.3 20140911 (Red Hat 4.8.3-7)
 C++ compiler             | /usr/local/bin/mpicxx
 C++ compiler version     | unknown
 BLAS                     | /lib64/atlas-sse3/libf77blas.so;/lib64/atlas-sse3/
                          | libcblas.so;/lib64/atlas-sse3/libatlas.so
 LAPACK                   | /lib64/atlas-sse3/libatlas.so;/lib64/atlas-sse3/li
                          | blapack.so
 Static linking           | OFF
 Last Git revision        | 177ec0c4a8433031d081f9503fe4a249bddff4ca
 Configuration time       | 2014-11-28 23:06:34.793627

 * Sequential calculation.


   Content of the .dal input file
 ----------------------------------

**DALTON                                          
.RUN PROPERTIES                                   
.PEQM                                             
*PEQM                                             
.BORDER                                           
REDIST 1 2.0 AA 1                                 
**WAVE FUNCTIONS                                  
.HF                                               
**PROPERTIES                                      
.SHIELD                                           
**END OF                                          


   Content of the .mol file
 ----------------------------

BASIS                                                                          
STO-3G                                                                         
Acrolein                                                                       
------------------------                                                       
AtomTypes=3 NoSymmetry Angstrom                                                
Charge=6.0 Atoms=3                                                             
C             -0.145335   -0.546770    0.000607                                
C              1.274009   -0.912471   -0.000167                                
C              1.630116   -2.207690   -0.000132                                
Charge=8.0 Atoms=1                                                             
O             -0.560104    0.608977    0.000534                                
Charge=1.0 Atoms=4                                                             
H             -0.871904   -1.386459    0.001253                                
H              2.004448   -0.101417   -0.000710                                
H              0.879028   -3.000685    0.000484                                
H              2.675323   -2.516779   -0.000673                                


       *******************************************************************
       *********** Output from DALTON general input processing ***********
       *******************************************************************

 --------------------------------------------------------------------------------
   Overall default print level:    0
   Print level for DALTON.STAT:    1

    HERMIT 1- and 2-electron integral sections will be executed
    "Old" integral transformation used (limited to max 255 basis functions)
    Wave function sections will be executed (SIRIUS module)
    Static molecular property section will be executed (ABACUS module)
    Environment is modeled using polarizable embedding scheme (PE library)
 --------------------------------------------------------------------------------


   ****************************************************************************
   *************** Output of molecule and basis set information ***************
   ****************************************************************************


    The two title cards from your ".mol" input:
    ------------------------------------------------------------------------
 1: Acrolein                                                                
 2: ------------------------                                                
    ------------------------------------------------------------------------

  Coordinates are entered in Angstrom and converted to atomic units.
          - Conversion factor : 1 bohr = 0.52917721 A

  Atomic type no.    1
  --------------------
  Nuclear charge:   6.00000
  Number of symmetry independent centers:    3
  Number of basis sets to read;    2
  Basis set file used for this atomic type with Z =   6 :
     "/home/magnus/Projects/dalton_devel/dalton/build_release/basis/STO-3G"

  Atomic type no.    2
  --------------------
  Nuclear charge:   8.00000
  Number of symmetry independent centers:    1
  Number of basis sets to read;    2
  Basis set file used for this atomic type with Z =   8 :
     "/home/magnus/Projects/dalton_devel/dalton/build_release/basis/STO-3G"

  Atomic type no.    3
  --------------------
  Nuclear charge:   1.00000
  Number of symmetry independent centers:    4
  Number of basis sets to read;    2
  Basis set file used for this atomic type with Z =   1 :
     "/home/magnus/Projects/dalton_devel/dalton/build_release/basis/STO-3G"


                         SYMGRP: Point group information
                         -------------------------------

@    Point group: C1 


                                 Isotopic Masses
                                 ---------------

                           C          12.000000
                           C          12.000000
                           C          12.000000
                           O          15.994915
                           H           1.007825
                           H           1.007825
                           H           1.007825
                           H           1.007825

                       Total mass:    56.026215 amu
                       Natural abundance:  96.446 %

 Center-of-mass coordinates (a.u.):    0.973773   -1.393790    0.000425


  Atoms and basis sets
  --------------------

  Number of atom types :    3
  Total number of atoms:    8

  Basis set used is "STO-3G" from the basis set library.

  label    atoms   charge   prim   cont     basis
  ----------------------------------------------------------------------
  C           3    6.0000    15     5      [6s3p|2s1p]                                        
  O           1    8.0000    15     5      [6s3p|2s1p]                                        
  H           4    1.0000     3     1      [3s|1s]                                            
  ----------------------------------------------------------------------
  total:      8   30.0000    72    24
  ----------------------------------------------------------------------

  Threshold for neglecting AO integrals:  1.00D-12


  Cartesian Coordinates (a.u.)
  ----------------------------

  Total number of coordinates:   24
  C       :     1  x  -0.2746433464    2  y  -1.0332455534    3  z   0.0011470638
  C       :     4  x   2.4075280908    5  y  -1.7243202870    6  z  -0.0003155843
  C       :     7  x   3.0804727920    8  y  -4.1719294689    9  z  -0.0002494438
  O       :    10  x  -1.0584431615   11  y   1.1507997464   12  z   0.0010091138
  H       :    13  x  -1.6476597673   14  y  -2.6200277935   15  z   0.0023678268
  H       :    16  x   3.7878577518   17  y  -0.1916503544   18  z  -0.0013417055
  H       :    19  x   1.6611221762   20  y  -5.6704728374   21  z   0.0009146274
  H       :    22  x   5.0556277659   23  y  -4.7560230271   24  z  -0.0012717857


   Interatomic separations (in Angstrom):
   --------------------------------------

            C           C           C           O           H           H     
            ------      ------      ------      ------      ------      ------
 C     :    0.000000
 C     :    1.465700    0.000000
 C     :    2.431231    1.343281    0.000000
 O     :    1.227919    2.383018    3.568007    0.000000
 H     :    1.110397    2.197637    2.633349    2.019650    0.000000
 H     :    2.195429    1.091490    2.139278    2.661125    3.150355    0.000000
 H     :    2.659139    2.125241    1.092234    3.885970    2.381489    3.110036
 H     :    3.440501    2.130137    1.089951    4.498704    3.722962    2.506800

            H           H     
            ------      ------
 H     :    0.000000
 H     :    1.860334    0.000000


  Max    interatomic separation is    4.4987 Angstrom (    8.5013 Bohr)
  between atoms    8 and    4, "H     " and "O     ".

  Min HX interatomic separation is    1.0900 Angstrom (    2.0597 Bohr)

  Min YX interatomic separation is    1.2279 Angstrom (    2.3204 Bohr)


  Bond distances (Angstrom):
  --------------------------

                  atom 1     atom 2       distance
                  ------     ------       --------
  bond distance:  C          C            1.465700
  bond distance:  C          C            1.343281
  bond distance:  O          C            1.227919
  bond distance:  H          C            1.110397
  bond distance:  H          C            1.091490
  bond distance:  H          C            1.092234
  bond distance:  H          C            1.089951


  Bond angles (degrees):
  ----------------------

                  atom 1     atom 2     atom 3         angle
                  ------     ------     ------         -----
  bond angle:     C          C          O            124.190
  bond angle:     C          C          H            116.421
  bond angle:     O          C          H            119.389
  bond angle:     C          C          C            119.821
  bond angle:     C          C          H            117.558
  bond angle:     C          C          H            122.621
  bond angle:     C          C          H            121.182
  bond angle:     C          C          H            121.847
  bond angle:     H          C          H            116.971




 Principal moments of inertia (u*A**2) and principal axes
 --------------------------------------------------------

   IA      10.696865         -0.668732    0.743503    0.000230
   IB     108.794831          0.743503    0.668732   -0.000587
   IC     119.491696          0.000590    0.000221    1.000000


 Rotational constants
 --------------------

@    The molecule is planar.

               A                   B                   C

          47245.5253           4645.2483           4229.4069 MHz
            1.575941            0.154949            0.141078 cm-1


@  Nuclear repulsion energy :  102.664846860515 Hartree

  Reading potential input file for polarizable embedding calculation

  Polarizable embedding information
  ---------------------------------

    Number of classical sites:      6

    Multipole moments upto 2nd order.

    Dipole-dipole polarizabilities.

    Iterative solver for induced moments will be used
    with convergence threshold: 1.0E-08

    Redistributing multipoles upto 0th order
    from site:     2
    to neighbouring site:     1

    Redistributing multipoles upto 0th order
    from site:     5
    to neighbouring site:     4

       Resulting monopoles: 
      ----------------------
       O       1    -0.3724
       O       4    -0.3725


                     .---------------------------------------.
                     | Starting in Integral Section (HERMIT) |
                     `---------------------------------------'



 ***************************************************************************************
 ****************** Output from **INTEGRALS input processing (HERMIT) ******************
 ***************************************************************************************


 - Using defaults, no **INTEGRALS input found

 Default print level:        1

 * Nuclear model: Point charge

 Calculation of one- and two-electron Hamiltonian integrals.

 Center of mass  (bohr):      0.973773359129     -1.393789716280      0.000424788898
 Operator center (bohr):      0.000000000000      0.000000000000      0.000000000000
 Gauge origin    (bohr):      0.000000000000      0.000000000000      0.000000000000
 Dipole origin   (bohr):      0.000000000000      0.000000000000      0.000000000000


     ************************************************************************
     ************************** Output from HERINT **************************
     ************************************************************************


 Threshold for neglecting two-electron integrals:  1.00D-12
 HERMIT - Number of two-electron integrals written:       43383 ( 96.1% )
 HERMIT - Megabytes written:                              0.502

 >>>  Time used in TWOINT     is   0.22 seconds
 >>>> Total CPU  time used in HERMIT:   0.26 seconds
 >>>> Total wall time used in HERMIT:   0.26 seconds


                        .----------------------------------.
                        | End of Integral Section (HERMIT) |
                        `----------------------------------'



                   .--------------------------------------------.
                   | Starting in Wave Function Section (SIRIUS) |
                   `--------------------------------------------'


 *** Output from Huckel module :

     Using EWMO model:          T
     Using EHT  model:          F
     Number of Huckel orbitals each symmetry:   24

 EWMO - Energy Weighted Maximum Overlap - is a Huckel type method,
        which normally is better than Extended Huckel Theory.
 Reference: Linderberg and Ohrn, Propagators in Quantum Chemistry (Wiley, 1973)

 Huckel EWMO eigenvalues for symmetry :  1
          -20.684561     -11.357400     -11.351264     -11.346036      -1.724840
           -1.477979      -1.046134      -1.031570      -0.744448      -0.729231
           -0.672044      -0.551742      -0.540543      -0.516178      -0.438809
           -0.319925      -0.220785      -0.162868      -0.131432      -0.129120
           -0.123435      -0.114530      -0.093199      -0.085427

 **********************************************************************
 *SIRIUS* a direct, restricted step, second order MCSCF program       *
 **********************************************************************

 
     Date and time (Linux)  : Sat Nov 29 00:52:10 2014
     Host name              : foeroyar                                

 Title lines from ".mol" input file:
     Acrolein                                                                
     ------------------------                                                

 Print level on unit LUPRI =   2 is   0
 Print level on unit LUW4  =   2 is   5

@    Restricted, closed shell Hartree-Fock calculation.

 Initial molecular orbitals are obtained according to
 ".MOSTART EWMO  " input option

@    QM part is embedded in an environment :

@         Model: PE

     Wave function specification
     ============================

     Wave function environment is modeled using the
     polarizable embedding model (PE library).

@    Wave function type        >>> PE-HF <<<
@    Number of closed shell electrons          30
@    Number of electrons in active shells       0
@    Total charge of the molecule               0

@    Spin multiplicity and 2 M_S                1         0
@    Total number of symmetries                 1 (point group: C1 )
@    Reference state symmetry                   1 (irrep name : A  )

     Orbital specifications
     ======================
     Abelian symmetry species          All |    1
                                           |  A  
                                       --- |  ---
@    Occupied SCF orbitals              15 |   15
     Secondary orbitals                  9 |    9
     Total number of orbitals           24 |   24
     Number of basis functions          24 |   24

     Optimization information
     ========================
@    Number of configurations                 1
@    Number of orbital rotations            135
     ------------------------------------------
@    Total number of variables              136

     Maximum number of Fock   iterations      0
     Maximum number of DIIS   iterations     60
     Maximum number of QC-SCF iterations     60
     Threshold for SCF convergence     1.00D-05


 ***********************************************
 ***** DIIS acceleration of SCF iterations *****
 ***********************************************

 C1-DIIS algorithm; max error vectors =    8

 Iter      Total energy     Embedding energy      Error norm     Delta(E)
 -----------------------------------------------------------------------------
     (Precalculated two-electron integrals are transformed to P-supermatrix elements.
      Threshold for discarding integrals :  1.00D-12 )
@  1  -187.911044579     -1.123172276052E-02    2.06448D+00   -1.88D+02
      Virial theorem: -V/T =      2.002856
@      MULPOP C       0.93; C       0.24; C       0.42; O      -1.03; H      -0.16; H      -0.14; H      -0.12; H      -0.13; 
 -----------------------------------------------------------------------------
@  2  -188.141562435      1.343411782549E-03    1.52260D+00   -2.31D-01
      Virial theorem: -V/T =      2.009747
@      MULPOP C      -0.45; C      -0.17; C      -0.29; O       0.47; H       0.06; H       0.14; H       0.12; H       0.12; 
 -----------------------------------------------------------------------------
@  3  -188.302214373     -4.932819928801E-03    1.22234D-01   -1.61D-01
      Virial theorem: -V/T =      2.008103
@      MULPOP C       0.18; C      -0.10; C      -0.12; O      -0.25; H       0.04; H       0.09; H       0.07; H       0.07; 
 -----------------------------------------------------------------------------
@  4  -188.304307552     -4.734462805718E-03    2.96143D-02   -2.09D-03
      Virial theorem: -V/T =      2.008196
@      MULPOP C       0.12; C      -0.09; C      -0.10; O      -0.22; H       0.06; H       0.09; H       0.07; H       0.07; 
 -----------------------------------------------------------------------------
@  5  -188.304475991     -4.756789044414E-03    9.41453D-03   -1.68D-04
      Virial theorem: -V/T =      2.008159
@      MULPOP C       0.13; C      -0.08; C      -0.11; O      -0.22; H       0.05; H       0.09; H       0.07; H       0.07; 
 -----------------------------------------------------------------------------
@  6  -188.304489673     -4.750432742822E-03    2.66447D-03   -1.37D-05
      Virial theorem: -V/T =      2.008161
@      MULPOP C       0.13; C      -0.09; C      -0.11; O      -0.22; H       0.06; H       0.09; H       0.07; H       0.07; 
 -----------------------------------------------------------------------------
@  7  -188.304490678     -4.752806412146E-03    9.07744D-04   -1.01D-06
      Virial theorem: -V/T =      2.008161
@      MULPOP C       0.13; C      -0.08; C      -0.11; O      -0.22; H       0.06; H       0.09; H       0.07; H       0.07; 
 -----------------------------------------------------------------------------
@  8  -188.304490785     -4.753234923215E-03    2.52378D-04   -1.07D-07
      Virial theorem: -V/T =      2.008161
@      MULPOP C       0.13; C      -0.08; C      -0.11; O      -0.22; H       0.06; H       0.09; H       0.07; H       0.07; 
 -----------------------------------------------------------------------------
@  9  -188.304490797     -4.753239372912E-03    6.05605D-05   -1.13D-08
      Virial theorem: -V/T =      2.008161
@      MULPOP C       0.13; C      -0.08; C      -0.11; O      -0.22; H       0.06; H       0.09; H       0.07; H       0.07; 
 -----------------------------------------------------------------------------
@ 10  -188.304490797     -4.753270134285E-03    1.14135D-05   -5.54D-10
      Virial theorem: -V/T =      2.008162
@      MULPOP C       0.13; C      -0.08; C      -0.11; O      -0.22; H       0.06; H       0.09; H       0.07; H       0.07; 
 -----------------------------------------------------------------------------
@ 11  -188.304490797     -4.753262447175E-03    4.66142D-06   -2.25D-11

@ *** DIIS converged in  11 iterations !
@     Converged SCF energy, gradient:   -188.304490797274    4.66D-06
    - total time used in SIRFCK :              0.00 seconds


 *** SCF orbital energy analysis ***
   (incl. contribution from polarizable embedding potential)

 Only the five lowest virtual orbital energies printed in each symmetry.

 Number of electrons :   30
 Orbital occupations :   15

 Sym       Hartree-Fock orbital energies

1 A     -20.26828022   -11.10761958   -11.03410974   -11.02882102    -1.30886433
         -1.00433467    -0.80566622    -0.71315027    -0.59192230    -0.58075913
         -0.49544189    -0.48398906    -0.44986699    -0.32801178    -0.30452337
          0.22917812     0.40633738     0.61395933     0.64891559     0.67573268

    E(LUMO) :     0.22917812 au (symmetry 1)
  - E(HOMO) :    -0.30452337 au (symmetry 1)
  ------------------------------------------
    gap     :     0.53370149 au

      Polarizable embedding energy contributions:
     ---------------------------------------------

       Electrostatic contributions:
         Monopoles                  0.000105114453
         Dipoles                   -0.003632175725
         Quadrupoles               -0.001153448316

       Polarization contributions:
         Electronic                -0.003491098952
         Nuclear                    0.003413216071
         Multipole                  0.000005130021

       Total PE energy:            -0.004753262447

 >>> Writing SIRIFC interface file

 >>>> CPU and wall time for SCF :       0.191       0.191


                       .-----------------------------------.
                       | >>> Final results from SIRIUS <<< |
                       `-----------------------------------'


@    Spin multiplicity:           1
@    Spatial symmetry:            1 ( irrep  A   in C1  )
@    Total charge of molecule:    0

@    Final HF energy:            -188.304490797274                 
@    Nuclear repulsion:           102.664846860515
@    Electronic energy:          -290.964584395342
@    Embedding energy:             -0.004753262447

@    Final gradient norm:           0.000004661425

 
     Date and time (Linux)  : Sat Nov 29 00:52:10 2014
     Host name              : foeroyar                                

 (Only coefficients >0.0100 are printed.)

 Molecular orbitals for symmetry species 1  (A  )
 ------------------------------------------------

    Orbital         1        2        3        4        5        6        7
   1 C   :1s    -0.0005  -0.9925   0.0005   0.0015   0.1246   0.0618   0.1349
   2 C   :1s     0.0071  -0.0333  -0.0002  -0.0064  -0.2868  -0.1732  -0.4134
   3 C   :2px   -0.0021  -0.0003  -0.0003  -0.0042   0.0466  -0.1107  -0.1144
   4 C   :2py    0.0059  -0.0004   0.0003   0.0011  -0.1462   0.0889   0.1332
   6 C   :1s     0.0000   0.0006   0.0683   0.9898   0.0224   0.1790   0.0608
   7 C   :1s    -0.0003   0.0061  -0.0051   0.0367  -0.0544  -0.4697  -0.1812
   8 C   :2px    0.0000  -0.0041  -0.0012  -0.0003   0.0290   0.0120   0.1793
   9 C   :2py   -0.0005   0.0013   0.0042  -0.0018  -0.0078   0.0953  -0.1650
  11 C   :1s    -0.0000   0.0003   0.9900  -0.0677   0.0049   0.1592  -0.1468
  12 C   :1s    -0.0001  -0.0001   0.0351  -0.0102  -0.0118  -0.4213   0.4318
  13 C   :2px   -0.0001  -0.0000  -0.0003   0.0013   0.0025   0.0385   0.0597
  14 C   :2py   -0.0000   0.0000   0.0011  -0.0045  -0.0059  -0.1048  -0.0671
  16 O   :1s    -0.9943  -0.0002   0.0000  -0.0000   0.2173  -0.0455  -0.0771
  17 O   :1s    -0.0259   0.0057  -0.0001   0.0003  -0.7624   0.1766   0.3306
  18 O   :2px   -0.0019   0.0007  -0.0000   0.0002  -0.0565  -0.0183  -0.0657
  19 O   :2py    0.0052  -0.0016   0.0001  -0.0001   0.1527   0.0035   0.0964
  21 H   :1s    -0.0002   0.0065  -0.0001   0.0001  -0.0326  -0.0455  -0.1486
  22 H   :1s     0.0002  -0.0000  -0.0003  -0.0067  -0.0087  -0.1000  -0.0603
  23 H   :1s     0.0000   0.0001  -0.0067   0.0006  -0.0022  -0.1006   0.1557
  24 H   :1s     0.0000   0.0001  -0.0067   0.0006  -0.0013  -0.0933   0.1966

    Orbital         8        9       10       11       12       13       14
   1 C   :1s    -0.0952  -0.0052   0.0578   0.0164   0.0252  -0.0000  -0.0036
   2 C   :1s     0.3081   0.0215  -0.1960  -0.0541  -0.0971   0.0000   0.0123
   3 C   :2px   -0.2126  -0.3789  -0.0382   0.0499  -0.2338   0.0003   0.1754
   4 C   :2py   -0.1762  -0.0995  -0.2057  -0.3700   0.1323   0.0002   0.0554
   5 C   :2pz    0.0002   0.0003   0.0001   0.0001   0.0001   0.5638  -0.0001
   6 C   :1s     0.1065  -0.0187  -0.0371  -0.0018  -0.0157   0.0000  -0.0375
   7 C   :1s    -0.3293   0.0627   0.1064   0.0208   0.0673  -0.0000   0.1659
   8 C   :2px   -0.1564   0.3073  -0.0232  -0.0196   0.2549   0.0002  -0.3031
   9 C   :2py   -0.1393  -0.0522  -0.3152   0.3332   0.1908   0.0000   0.0620
  10 C   :2pz    0.0001  -0.0002   0.0001  -0.0000  -0.0002   0.3159   0.0002
  11 C   :1s    -0.0530   0.0112   0.0112   0.0258   0.0059  -0.0000   0.0073
  12 C   :1s     0.1663  -0.0478  -0.0558  -0.0752  -0.0162   0.0000  -0.0234
  13 C   :2px   -0.0590   0.2424  -0.3160   0.1012  -0.3642   0.0001   0.0618
  14 C   :2py   -0.1777   0.2418   0.2850  -0.2913  -0.1722   0.0001  -0.0652
  15 C   :2pz    0.0001  -0.0002   0.0001   0.0000   0.0003   0.2109  -0.0000
  16 O   :1s     0.0436   0.0117  -0.0708  -0.0626   0.0230   0.0000  -0.0012
  17 O   :1s    -0.1976  -0.0601   0.3566   0.3418  -0.1290  -0.0000   0.0079
  18 O   :2px   -0.1039  -0.2977  -0.2398  -0.2412  -0.1711   0.0004  -0.8072
  19 O   :2py   -0.1575  -0.1611   0.2898   0.4885  -0.2675   0.0001  -0.2915
  20 O   :2pz    0.0001   0.0002   0.0001   0.0001   0.0002   0.5500   0.0006
  21 H   :1s     0.2767   0.2172   0.0438   0.2054  -0.0029  -0.0000  -0.3521
  22 H   :1s    -0.2534   0.1494  -0.1321   0.2217   0.3220  -0.0000  -0.1123
  23 H   :1s     0.1835  -0.2839  -0.0145   0.1074   0.3656  -0.0000  -0.0518
  24 H   :1s     0.0638   0.1080  -0.3329   0.1293  -0.3084  -0.0000   0.0950

    Orbital        15       16       17
   5 C   :2pz    0.2080  -0.5025  -0.6852
  10 C   :2pz   -0.5463  -0.4347   0.7151
  15 C   :2pz   -0.5880   0.6415  -0.5076
  20 O   :2pz    0.4240   0.5805   0.4742



 >>>> Total CPU  time used in SIRIUS :      0.20 seconds
 >>>> Total wall time used in SIRIUS :      0.20 seconds

 
     Date and time (Linux)  : Sat Nov 29 00:52:10 2014
     Host name              : foeroyar                                


                     .---------------------------------------.
                     | End of Wave Function Section (SIRIUS) |
                     `---------------------------------------'



        *****************************************************************
        ******** Output from **PROPE input processing for ABACUS ********
        *****************************************************************



 The following molecular properties will be calculated in this run:
 ------------------------------------------------------------------

 Default print level:        0

      Nuclear magnetic shieldings
      Natural orbital connection is used
      for perturbation dependent basis sets.
      Environment is modeled using the polarizable embedding scheme (PE library).

 Center of mass dipole origin  :    0.973773   -1.393790    0.000425

 Center of mass gauge origin   :    0.973773   -1.393790    0.000425


                 .------------------------------------------------.
                 | Starting in Static Property Section (ABACUS) - |
                 `------------------------------------------------'


 
     Date and time (Linux)  : Sat Nov 29 00:52:10 2014
     Host name              : foeroyar                                

 Integral transformation: Total CPU and WALL times (sec)       0.040       0.040
    Convergence for MAGFLD.1. Last residual and threshold:   0.00007   0.00010
    Convergence for MAGFLD.2. Last residual and threshold:   0.00007   0.00010
    Convergence for MAGFLD.3. Last residual and threshold:   0.00001   0.00010


   ***************************************************************************
   ************************ FINAL RESULTS from ABACUS ************************
   ***************************************************************************


 
     Date and time (Linux)  : Sat Nov 29 00:52:12 2014
     Host name              : foeroyar                                


                             Molecular geometry (au)
                             -----------------------

 C         -0.2746433464           -1.0332455534            0.0011470638
 C          2.4075280908           -1.7243202870           -0.0003155843
 C          3.0804727920           -4.1719294689           -0.0002494438
 O         -1.0584431615            1.1507997464            0.0010091138
 H         -1.6476597673           -2.6200277935            0.0023678268
 H          3.7878577518           -0.1916503544           -0.0013417055
 H          1.6611221762           -5.6704728374            0.0009146274
 H          5.0556277659           -4.7560230271           -0.0012717857





                        Molecular wave function and energy
                        ----------------------------------

     Spin multiplicity  1     State number       1     Total charge       0

     Total energy       -188.3044907973 au (Hartrees)
                         -5124.02584755 eV
                           -494393.3644 kJ/mol


                             Relativistic corrections
                             ------------------------

     Darwin correction:                          0.2461779222 au
     Mass-velocity correction:                  -0.3142811990 au

     Total relativistic correction:             -0.0681032768 au (0.0362%)
     Non-relativistic + relativistic energy:  -188.3725940741 au




                                  Dipole moment
                                  -------------

                 au               Debye          C m (/(10**-30)
              0.838884           2.132231           7.112356


                             Dipole moment components
                             ------------------------

                 au               Debye          C m (/(10**-30)

      x      0.41122934         1.04524067         3.48654757
      y     -0.73117511        -1.85846163        -6.19916072
      z     -0.00006954        -0.00017675        -0.00058956


   Units:   1 a.u. =   2.54175 Debye 
            1 a.u. =   8.47835 (10**-30) C m (SI)




  ******************************************************************************
  ************************ ABACUS - CHEMICAL SHIELDINGS ************************
  ******************************************************************************



                 Shielding tensors in symmetry coordinates (ppm)
                 -----------------------------------------------

                       Bx             By             Bz

        C    x   -27.69159299   -66.10653513     0.14087761
        C    y   -64.75255352   112.12377855     0.05632961
        C    z     0.14280727     0.05698220   180.57342232

        C    x    19.81019979   -31.57483770     0.12326388
        C    y   -46.84226597   123.66243393     0.04701433
        C    z     0.12563946     0.03591050   222.23970988

        C    x     6.80111977   -12.74801609     0.12488511
        C    y   -31.28966888   130.47515616     0.03613236
        C    z     0.13328987     0.02540284   222.04896968

        O    x  -522.82111672   242.29799015     0.54136551
        O    y   281.08172080 -1062.91377370     0.24167299
        O    z     0.53152258     0.25578433   490.78733511

        H    x    21.52732368     1.91403947     0.00117162
        H    y    -3.36963945    19.41111544     0.00349369
        H    z     0.00259732     0.00038908    24.64338142

        H    x    22.91070103     0.27881755     0.00137455
        H    y    -4.15863472    28.95367276     0.00176927
        H    z     0.00158074    -0.00102414    24.63725098

        H    x    23.66320990     0.46830473     0.00136085
        H    y    -4.07190937    30.28197885     0.00150307
        H    z     0.00258596    -0.00113003    26.53106268

        H    x    23.58961095    -2.21845194     0.00192106
        H    y    -0.12883262    29.61262477    -0.00053446
        H    z     0.00173112     0.00059884    26.44926605





  Chemical shielding for C     :
  ==============================


  Shielding constant:     88.3352 ppm
  Anisotropy:           -212.8042 ppm
  Asymmetry:               0.3003    

  S parameter:           215.9795 ppm
  A parameter:             0.6770 ppm


  Total shielding tensor (ppm):
  -----------------------------

                    Bx             By             Bz

  C      x   -27.69159299   -66.10653513     0.14087761
  C      y   -64.75255352   112.12377855     0.05632961
  C      z     0.14280727     0.05698220   180.57342232


  Diamagnetic and paramagnetic contributions (ppm):
  -------------------------------------------------

                 Bx         By         Bz            Bx         By         Bz

  C      x   308.3630   -24.9697     0.0435     -336.0546   -41.1368     0.0973
  C      y    -6.3543   323.1833     0.0144      -58.3982  -211.0595     0.0419
  C      z     0.0377     0.0273   368.9695        0.1051     0.0296  -188.3961

  Diamagnetic contribution:    333.505259         Paramagnetic:    -245.170056


  Antisymmetric and traceless symmetric parts (ppm):
  --------------------------------------------------

                 Bx         By         Bz            Bx         By         Bz

  C      x     0.0000    -0.6770    -0.0010     -116.0268   -65.4295     0.1418
  C      y     0.6770     0.0000    -0.0003      -65.4295    23.7886     0.0567
  C      z     0.0010     0.0003     0.0000        0.1418     0.0567    92.2382


  Principal values and axes:
  --------------------------

  C         180.573522  =   88.34  +  92.24:     0.000602  0.000253  1.000000
  C         137.966340  =   88.34  +  49.63:    -0.367352  0.930082 -0.000014
  C         -53.534254  =   88.34  - 141.87:     0.930082  0.367352 -0.000652


  Chemical shielding for C     :
  ==============================


  Shielding constant:    121.9041 ppm
  Anisotropy:           -172.8514 ppm
  Asymmetry:               0.7414    

  S parameter:           188.0219 ppm
  A parameter:             7.6337 ppm


  Total shielding tensor (ppm):
  -----------------------------

                    Bx             By             Bz

  C      x    19.81019979   -31.57483770     0.12326388
  C      y   -46.84226597   123.66243393     0.04701433
  C      z     0.12563946     0.03591050   222.23970988


  Diamagnetic and paramagnetic contributions (ppm):
  -------------------------------------------------

                 Bx         By         Bz            Bx         By         Bz

  C      x   338.7141    -5.3780     0.0290     -318.9039   -26.1969     0.0943
  C      y     1.9634   336.0426     0.0093      -48.8056  -212.3802     0.0378
  C      z     0.0279     0.0121   387.5093        0.0977     0.0238  -165.2696

  Diamagnetic contribution:    354.088691         Paramagnetic:    -232.184576


  Antisymmetric and traceless symmetric parts (ppm):
  --------------------------------------------------

                 Bx         By         Bz            Bx         By         Bz

  C      x     0.0000     7.6337    -0.0012     -102.0939   -39.2086     0.1245
  C      y    -7.6337     0.0000     0.0056      -39.2086     1.7583     0.0415
  C      z     0.0012    -0.0056     0.0000        0.1245     0.0415   100.3356


  Principal values and axes:
  --------------------------

  C         222.239790  =  121.90  + 100.34:     0.000578  0.000191  1.000000
  C         136.802684  =  121.90  +  14.90:    -0.317767  0.948169  0.000003
  C           6.669870  =  121.90  - 115.23:     0.948169  0.317767 -0.000609


  Chemical shielding for C     :
  ==============================


  Shielding constant:    119.7751 ppm
  Anisotropy:           -175.1660 ppm
  Asymmetry:               0.7516    

  S parameter:           190.9473 ppm
  A parameter:             9.2708 ppm


  Total shielding tensor (ppm):
  -----------------------------

                    Bx             By             Bz

  C      x     6.80111977   -12.74801609     0.12488511
  C      y   -31.28966888   130.47515616     0.03613236
  C      z     0.13328987     0.02540284   222.04896968


  Diamagnetic and paramagnetic contributions (ppm):
  -------------------------------------------------

                 Bx         By         Bz            Bx         By         Bz

  C      x   343.6767     9.8148     0.0254     -336.8756   -22.5628     0.0995
  C      y     2.8887   328.7205     0.0126      -34.1783  -198.2454     0.0236
  C      z     0.0278     0.0069   391.2702        0.1055     0.0185  -169.2213

  Diamagnetic contribution:    354.555827         Paramagnetic:    -234.780745


  Antisymmetric and traceless symmetric parts (ppm):
  --------------------------------------------------

                 Bx         By         Bz            Bx         By         Bz

  C      x     0.0000     9.2708    -0.0042     -112.9740   -22.0188     0.1291
  C      y    -9.2708     0.0000     0.0054      -22.0188    10.7001     0.0308
  C      z     0.0042    -0.0054     0.0000        0.1291     0.0308   102.2739


  Principal values and axes:
  --------------------------

  C         222.049051  =  119.78  + 102.27:     0.000580  0.000197  1.000000
  C         134.278416  =  119.78  +  14.50:    -0.170207  0.985408 -0.000095
  C           2.997779  =  119.78  - 116.78:     0.985408  0.170207 -0.000605


  Chemical shielding for O     :
  ==============================


  Shielding constant:   -364.9825 ppm
  Anisotropy:           1283.6554 ppm
  Asymmetry:               0.8788    

  S parameter:          1439.4410 ppm
  A parameter:            19.3919 ppm


  Total shielding tensor (ppm):
  -----------------------------

                    Bx             By             Bz

  O      x  -522.82111672   242.29799015     0.54136551
  O      y   281.08172080 -1062.91377370     0.24167299
  O      z     0.53152258     0.25578433   490.78733511


  Diamagnetic and paramagnetic contributions (ppm):
  -------------------------------------------------

                 Bx         By         Bz            Bx         By         Bz

  O      x   529.9825    52.0872     0.0038    -1052.8036   190.2108     0.5376
  O      y    40.2296   436.7819     0.0063      240.8521 -1499.6957     0.2354
  O      z     0.0051    -0.0008   556.5632        0.5264     0.2566   -65.7759

  Diamagnetic contribution:    507.775894         Paramagnetic:    -872.758412


  Antisymmetric and traceless symmetric parts (ppm):
  --------------------------------------------------

                 Bx         By         Bz            Bx         By         Bz

  O      x     0.0000   -19.3919     0.0049     -157.8386   261.6899     0.5364
  O      y    19.3919     0.0000    -0.0071      261.6899  -697.9313     0.2487
  O      z    -0.0049     0.0071     0.0000        0.5364     0.2487   855.7699


  Principal values and axes:
  --------------------------

  O       -1168.908135  = -364.98  - 803.93:    -0.375413  0.926858 -0.000018
  O        -416.827140  = -364.98  -  51.84:     0.926858  0.375413 -0.000651
  O         490.787720  = -364.98  + 855.77:     0.000597  0.000261  1.000000


  Chemical shielding for H     :
  ==============================


  Shielding constant:     21.8606 ppm
  Anisotropy:              4.1742 ppm
  Asymmetry:               0.9230    

  S parameter:             4.7298 ppm
  A parameter:             2.6418 ppm


  Total shielding tensor (ppm):
  -----------------------------

                    Bx             By             Bz

  H      x    21.52732368     1.91403947     0.00117162
  H      y    -3.36963945    19.41111544     0.00349369
  H      z     0.00259732     0.00038908    24.64338142


  Diamagnetic and paramagnetic contributions (ppm):
  -------------------------------------------------

                 Bx         By         Bz            Bx         By         Bz

  H      x    40.2969    11.9060    -0.0090      -18.7696    -9.9919     0.0102
  H      y     9.1624    35.7184    -0.0083      -12.5320   -16.3073     0.0118
  H      z    -0.0099    -0.0104    29.5434        0.0125     0.0108    -4.9001

  Diamagnetic contribution:     35.186270         Paramagnetic:     -13.325663


  Antisymmetric and traceless symmetric parts (ppm):
  --------------------------------------------------

                 Bx         By         Bz            Bx         By         Bz

  H      x     0.0000     2.6418    -0.0007       -0.3333    -0.7278     0.0019
  H      y    -2.6418     0.0000     0.0016       -0.7278    -2.4495     0.0019
  H      z     0.0007    -0.0016     0.0000        0.0019     0.0019     2.7828


  Principal values and axes:
  --------------------------

  H          19.184977  =   21.86  -   2.68:     0.296721  0.954964 -0.000442
  H          21.753461  =   21.86  -   0.11:     0.954964 -0.296721 -0.000423
  H          24.643383  =   21.86  +   2.78:     0.000535  0.000297  1.000000


  Chemical shielding for H     :
  ==============================


  Shielding constant:     25.5005 ppm
  Anisotropy:              6.0334 ppm
  Asymmetry:               0.5707    

  S parameter:             6.3525 ppm
  A parameter:             2.2187 ppm


  Total shielding tensor (ppm):
  -----------------------------

                    Bx             By             Bz

  H      x    22.91070103     0.27881755     0.00137455
  H      y    -4.15863472    28.95367276     0.00176927
  H      z     0.00158074    -0.00102414    24.63725098


  Diamagnetic and paramagnetic contributions (ppm):
  -------------------------------------------------

                 Bx         By         Bz            Bx         By         Bz

  H      x    39.4890    12.8712    -0.0089      -16.5783   -12.5923     0.0103
  H      y    11.5794    37.4213    -0.0081      -15.7380    -8.4676     0.0099
  H      z    -0.0083    -0.0080    26.6480        0.0099     0.0069    -2.0107

  Diamagnetic contribution:     34.519428         Paramagnetic:      -9.018886


  Antisymmetric and traceless symmetric parts (ppm):
  --------------------------------------------------

                 Bx         By         Bz            Bx         By         Bz

  H      x     0.0000     2.2187    -0.0001       -2.5898    -1.9399     0.0015
  H      y    -2.2187     0.0000     0.0014       -1.9399     3.4531     0.0004
  H      z     0.0001    -0.0014     0.0000        0.0015     0.0004    -0.8633


  Principal values and axes:
  --------------------------

  H          22.341556  =   25.50  -   3.16:     0.959555  0.281521 -0.000663
  H          24.637252  =   25.50  -   0.86:     0.000633  0.000198  1.000000
  H          29.522817  =   25.50  +   4.02:    -0.281521  0.959555 -0.000012


  Chemical shielding for H     :
  ==============================


  Shielding constant:     26.8254 ppm
  Anisotropy:              5.8729 ppm
  Asymmetry:               0.8496    

  S parameter:             6.5414 ppm
  A parameter:             2.2701 ppm


  Total shielding tensor (ppm):
  -----------------------------

                    Bx             By             Bz

  H      x    23.66320990     0.46830473     0.00136085
  H      y    -4.07190937    30.28197885     0.00150307
  H      z     0.00258596    -0.00113003    26.53106268


  Diamagnetic and paramagnetic contributions (ppm):
  -------------------------------------------------

                 Bx         By         Bz            Bx         By         Bz

  H      x    31.3889     5.9094    -0.0060       -7.7257    -5.4411     0.0074
  H      y    13.7358    44.9280    -0.0133      -17.8078   -14.6460     0.0148
  H      z    -0.0084    -0.0085    22.1382        0.0110     0.0074     4.3928

  Diamagnetic contribution:     32.818359         Paramagnetic:      -5.992942


  Antisymmetric and traceless symmetric parts (ppm):
  --------------------------------------------------

                 Bx         By         Bz            Bx         By         Bz

  H      x     0.0000     2.2701    -0.0006       -3.1622    -1.8018     0.0020
  H      y    -2.2701     0.0000     0.0013       -1.8018     3.4566     0.0002
  H      z     0.0006    -0.0013     0.0000        0.0020     0.0002    -0.2944


  Principal values and axes:
  --------------------------

  H          23.204501  =   26.83  -   3.62:     0.969088  0.246713 -0.000589
  H          26.531064  =   26.83  -   0.29:     0.000553  0.000216  1.000000
  H          30.740686  =   26.83  +   3.92:    -0.246713  0.969089 -0.000073


  Chemical shielding for H     :
  ==============================


  Shielding constant:     26.5505 ppm
  Anisotropy:              4.9241 ppm
  Asymmetry:               0.9383    

  S parameter:             5.6003 ppm
  A parameter:             1.0448 ppm


  Total shielding tensor (ppm):
  -----------------------------

                    Bx             By             Bz

  H      x    23.58961095    -2.21845194     0.00192106
  H      y    -0.12883262    29.61262477    -0.00053446
  H      z     0.00173112     0.00059884    26.44926605


  Diamagnetic and paramagnetic contributions (ppm):
  -------------------------------------------------

                 Bx         By         Bz            Bx         By         Bz

  H      x    44.3228    -7.5368    -0.0284      -20.7332     5.3184     0.0304
  H      y   -13.3980    25.4937     0.0011       13.2691     4.1189    -0.0016
  H      z    -0.0273    -0.0021    -7.6535        0.0290     0.0027    34.1028

  Diamagnetic contribution:     20.720981         Paramagnetic:       5.829519


  Antisymmetric and traceless symmetric parts (ppm):
  --------------------------------------------------

                 Bx         By         Bz            Bx         By         Bz

  H      x     0.0000    -1.0448     0.0001       -2.9609    -1.1736     0.0018
  H      y     1.0448     0.0000    -0.0006       -1.1736     3.0621     0.0000
  H      z    -0.0001     0.0006     0.0000        0.0018     0.0000    -0.1012


  Principal values and axes:
  --------------------------

  H          23.368995  =   26.55  -   3.18:     0.982787  0.184739 -0.000585
  H          26.449267  =   26.55  -   0.10:     0.000558  0.000197  1.000000
  H          29.833239  =   26.55  +   3.28:    -0.184739  0.982788 -0.000090


                         +--------------------------------+
                         ! Summary of chemical shieldings !
                         +--------------------------------+

@1  Definitions from J. Mason, Solid state Nuc. Magn. Res. 2 (1993), 285

@1 London orbitals (GIAOs) has been used.

@1 atom   shielding       dia      para     skew      span     (aniso     asym)
@1 ----------------------------------------------------------------------------
@1 C        88.3352  333.5053 -245.1701   -0.6360  234.1078  138.3575    2.0762
@1 C       121.9041  354.0887 -232.1846   -0.2073  215.5699  150.5035    1.2970
@1 C       119.7751  354.5558 -234.7807   -0.1986  219.0513  153.4110    1.2836
@1 O      -364.9825  507.7759 -872.7584    0.0937 1659.6959 1283.6554    0.8788
@1 H        21.8606   35.1863  -13.3257    0.0589    5.4584    4.1742    0.9230
@1 H        25.5005   34.5194   -9.0189    0.3606    7.1813    6.0334    0.5707
@1 H        26.8254   32.8184   -5.9929    0.1172    7.5362    5.8729    0.8496
@1 H        26.5505   20.7210    5.8295    0.0470    6.4642    4.9241    0.9383



                         +--------------------------------+
                         ! Summary of chemical shieldings !
                         +--------------------------------+

@2  Definitions from Smith, Palke, and Grieg, Concepts in Mag. Res. 4 (1992), 107

@2 London orbitals (GIAOs) has been used.

@2 atom   shielding       dia      para     aniso      asym        S        A
@2 ----------------------------------------------------------------------------
@2 C        88.3352  333.5053 -245.1701 -212.8042    0.3003  215.9795    0.6770
@2 C       121.9041  354.0887 -232.1846 -172.8514    0.7414  188.0219    7.6337
@2 C       119.7751  354.5558 -234.7807 -175.1660    0.7516  190.9473    9.2708
@2 O      -364.9825  507.7759 -872.7584 1283.6554    0.8788 1439.4410   19.3919
@2 H        21.8606   35.1863  -13.3257    4.1742    0.9230    4.7298    2.6418
@2 H        25.5005   34.5194   -9.0189    6.0334    0.5707    6.3525    2.2187
@2 H        26.8254   32.8184   -5.9929    5.8729    0.8496    6.5414    2.2701
@2 H        26.5505   20.7210    5.8295    4.9241    0.9383    5.6003    1.0448



   Interatomic separations (in Angstrom):
   --------------------------------------

            C           C           C           O           H           H     
            ------      ------      ------      ------      ------      ------
 C     :    0.000000
 C     :    1.465700    0.000000
 C     :    2.431231    1.343281    0.000000
 O     :    1.227919    2.383018    3.568007    0.000000
 H     :    1.110397    2.197637    2.633349    2.019650    0.000000
 H     :    2.195429    1.091490    2.139278    2.661125    3.150355    0.000000
 H     :    2.659139    2.125241    1.092234    3.885970    2.381489    3.110036
 H     :    3.440501    2.130137    1.089951    4.498704    3.722962    2.506800

            H           H     
            ------      ------
 H     :    0.000000
 H     :    1.860334    0.000000


  Max    interatomic separation is    4.4987 Angstrom (    8.5013 Bohr)
  between atoms    8 and    4, "H     " and "O     ".

  Min HX interatomic separation is    1.0900 Angstrom (    2.0597 Bohr)

  Min YX interatomic separation is    1.2279 Angstrom (    2.3204 Bohr)


  Bond distances (Angstrom):
  --------------------------

                  atom 1     atom 2       distance
                  ------     ------       --------
  bond distance:  C          C            1.465700
  bond distance:  C          C            1.343281
  bond distance:  O          C            1.227919
  bond distance:  H          C            1.110397
  bond distance:  H          C            1.091490
  bond distance:  H          C            1.092234
  bond distance:  H          C            1.089951


  Bond angles (degrees):
  ----------------------

                  atom 1     atom 2     atom 3         angle
                  ------     ------     ------         -----
  bond angle:     C          C          O            124.190
  bond angle:     C          C          H            116.421
  bond angle:     O          C          H            119.389
  bond angle:     C          C          C            119.821
  bond angle:     C          C          H            117.558
  bond angle:     C          C          H            122.621
  bond angle:     C          C          H            121.182
  bond angle:     C          C          H            121.847
  bond angle:     H          C          H            116.971




 CPU time statistics for ABACUS
 ------------------------------

 REST       00:00:02     100 %

 TOTAL      00:00:02     100 %


 >>>> Total CPU  time used in ABACUS:   1.53 seconds
 >>>> Total wall time used in ABACUS:   1.53 seconds


                   .-------------------------------------------.
                   | End of Static Property Section (ABACUS) - |
                   `-------------------------------------------'

 >>>> Total CPU  time used in DALTON:   1.99 seconds
 >>>> Total wall time used in DALTON:   1.99 seconds

 
     Date and time (Linux)  : Sat Nov 29 00:52:12 2014
     Host name              : foeroyar                                
