

     ************************************************************************
     *************** Dalton - An Electronic Structure Program ***************
     ************************************************************************

    This is output from DALTON 2016.alpha
   ----------------------------------------------------------------------------
    NOTE:
     
    Dalton is an experimental code for the evaluation of molecular
    properties using (MC)SCF, DFT, CI, and CC wave functions.
    The authors accept no responsibility for the performance of
    the code or for the correctness of the results.
     
    The code (in whole or part) is provided under a licence and
    is not to be reproduced for further distribution without
    the written permission of the authors or their representatives.
     
    See the home page "http://daltonprogram.org" for further information.
     
    If results obtained with this code are published,
    the appropriate citations would be both of:
     
       K. Aidas, C. Angeli, K. L. Bak, V. Bakken, R. Bast,
       L. Boman, O. Christiansen, R. Cimiraglia, S. Coriani,
       J. Cukras, P. Dahle, E. K. Dalskov, U. Ekstroem,
       T. Enevoldsen, J. J. Eriksen, P. Ettenhuber, B. Fernandez,
       L. Ferrighi, H. Fliegl, L. Frediani, K. Hald, A. Halkier,
       C. Haettig, H. Heiberg, T. Helgaker, A. C. Hennum,
       H. Hettema, E. Hjertenaes, S. Hoest, I.-M. Hoeyvik,
       M. F. Iozzi, B. Jansik, H. J. Aa. Jensen, D. Jonsson,
       P. Joergensen, M. Kaminski, J. Kauczor, S. Kirpekar,
       T. Kjaergaard, W. Klopper, S. Knecht, R. Kobayashi, H. Koch,
       J. Kongsted, A. Krapp, K. Kristensen, A. Ligabue,
       O. B. Lutnaes, J. I. Melo, K. V. Mikkelsen, R. H. Myhre,
       C. Neiss, C. B. Nielsen, P. Norman, J. Olsen,
       J. M. H. Olsen, A. Osted, M. J. Packer, F. Pawlowski,
       T. B. Pedersen, P. F. Provasi, S. Reine, Z. Rinkevicius,
       T. A. Ruden, K. Ruud, V. Rybkin, P. Salek, C. C. M. Samson,
       A. Sanchez de Meras, T. Saue, S. P. A. Sauer,
       B. Schimmelpfennig, K. Sneskov, A. H. Steindal,
       K. O. Sylvester-Hvid, P. R. Taylor, A. M. Teale,
       E. I. Tellgren, D. P. Tew, A. J. Thorvaldsen, L. Thoegersen,
       O. Vahtras, M. A. Watson, D. J. D. Wilson, M. Ziolkowski
       and H. Agren,
       "The Dalton quantum chemistry program system",
       WIREs Comput. Mol. Sci. 2013. (doi: 10.1002/wcms.1172)
    
    and
    
       Dalton, a Molecular Electronic Structure Program,
       Release Dalton2016.alpha (2015), see http://daltonprogram.org
   ----------------------------------------------------------------------------

    Authors in alphabetical order (major contribution(s) in parenthesis):

  Kestutis Aidas,           Vilnius University,           Lithuania   (QM/MM)
  Celestino Angeli,         University of Ferrara,        Italy       (NEVPT2)
  Keld L. Bak,              UNI-C,                        Denmark     (AOSOPPA, non-adiabatic coupling, magnetic properties)
  Vebjoern Bakken,          University of Oslo,           Norway      (DALTON; geometry optimizer, symmetry detection)
  Radovan Bast,             KTH Stockholm,                Sweden      (DALTON installation and execution frameworks)
  Pablo Baudin,             University of Valencia,       Spain       (Cholesky excitation energies)
  Linus Boman,              NTNU,                         Norway      (Cholesky decomposition and subsystems)
  Ove Christiansen,         Aarhus University,            Denmark     (CC module)
  Renzo Cimiraglia,         University of Ferrara,        Italy       (NEVPT2)
  Sonia Coriani,            University of Trieste,        Italy       (CC module, MCD in RESPONS)
  Janusz Cukras,            University of Trieste,        Italy       (MChD in RESPONS)
  Paal Dahle,               University of Oslo,           Norway      (Parallelization)
  Erik K. Dalskov,          UNI-C,                        Denmark     (SOPPA)
  Thomas Enevoldsen,        Univ. of Southern Denmark,    Denmark     (SOPPA)
  Janus J. Eriksen,         Aarhus University,            Denmark     (Polarizable embedding model, TDA)
  Berta Fernandez,          U. of Santiago de Compostela, Spain       (doublet spin, ESR in RESPONS)
  Lara Ferrighi,            Aarhus University,            Denmark     (PCM Cubic response)
  Heike Fliegl,             University of Oslo,           Norway      (CCSD(R12))
  Luca Frediani,            UiT The Arctic U. of Norway,  Norway      (PCM)
  Bin Gao,                  UiT The Arctic U. of Norway,  Norway      (Gen1Int library)
  Christof Haettig,         Ruhr-University Bochum,       Germany     (CC module)
  Kasper Hald,              Aarhus University,            Denmark     (CC module)
  Asger Halkier,            Aarhus University,            Denmark     (CC module)
  Erik D. Hedegaard,        Univ. of Southern Denmark,    Denmark     (Polarizable embedding model, QM/MM)
  Hanne Heiberg,            University of Oslo,           Norway      (geometry analysis, selected one-electron integrals)
  Trygve Helgaker,          University of Oslo,           Norway      (DALTON; ABACUS, ERI, DFT modules, London, and much more)
  Alf Christian Hennum,     University of Oslo,           Norway      (Parity violation)
  Hinne Hettema,            University of Auckland,       New Zealand (quadratic response in RESPONS; SIRIUS supersymmetry)
  Eirik Hjertenaes,         NTNU,                         Norway      (Cholesky decomposition)
  Maria Francesca Iozzi,    University of Oslo,           Norway      (RPA)
  Brano Jansik              Technical Univ. of Ostrava    Czech Rep.  (DFT cubic response)
  Hans Joergen Aa. Jensen,  Univ. of Southern Denmark,    Denmark     (DALTON; SIRIUS, RESPONS, ABACUS modules, London, and much more)
  Dan Jonsson,              UiT The Arctic U. of Norway,  Norway      (cubic response in RESPONS module)
  Poul Joergensen,          Aarhus University,            Denmark     (RESPONS, ABACUS, and CC modules)
  Maciej Kaminski,          University of Warsaw,         Poland      (CPPh in RESPONS)
  Joanna Kauczor,           Linkoeping University,        Sweden      (Complex polarization propagator (CPP) module)
  Sheela Kirpekar,          Univ. of Southern Denmark,    Denmark     (Mass-velocity & Darwin integrals)
  Wim Klopper,              KIT Karlsruhe,                Germany     (R12 code in CC, SIRIUS, and ABACUS modules)
  Stefan Knecht,            ETH Zurich,                   Switzerland (Parallel CI and MCSCF)
  Rika Kobayashi,           Australian National Univ.,    Australia   (DIIS in CC, London in MCSCF)
  Henrik Koch,              NTNU,                         Norway      (CC module, Cholesky decomposition)
  Jacob Kongsted,           Univ. of Southern Denmark,    Denmark     (Polarizable embedding model, QM/MM)
  Andrea Ligabue,           University of Modena,         Italy       (CTOCD, AOSOPPA)
  Nanna H. List             Univ. of Southern Denmark,    Denmark     (Polarizable embedding model)
  Ola B. Lutnaes,           University of Oslo,           Norway      (DFT Hessian)
  Juan I. Melo,             University of Buenos Aires,   Argentina   (LRESC, Relativistic Effects on NMR Shieldings)
  Kurt V. Mikkelsen,        University of Copenhagen,     Denmark     (MC-SCRF and QM/MM)
  Rolf H. Myhre,            NTNU,                         Norway      (Cholesky, subsystems and ECC2)
  Christian Neiss,          Univ. Erlangen-Nuernberg,     Germany     (CCSD(R12))
  Christian B. Nielsen,     University of Copenhagen,     Denmark     (QM/MM)
  Patrick Norman,           Linkoeping University,        Sweden      (Cubic response and complex response in RESPONS)
  Jeppe Olsen,              Aarhus University,            Denmark     (SIRIUS CI/density modules)
  Jogvan Magnus H. Olsen,   Univ. of Southern Denmark,    Denmark     (Polarizable embedding model, QM/MM)
  Anders Osted,             Copenhagen University,        Denmark     (QM/MM)
  Martin J. Packer,         University of Sheffield,      UK          (SOPPA)
  Filip Pawlowski,          Kazimierz Wielki University,  Poland      (CC3)
  Morten N. Pedersen,       Univ. of Southern Denmark,    Denmark     (Polarizable embedding model)
  Thomas B. Pedersen,       University of Oslo,           Norway      (Cholesky decomposition)
  Patricio F. Provasi,      University of Northeastern,   Argentina   (Analysis of coupling constants in localized orbitals)
  Zilvinas Rinkevicius,     KTH Stockholm,                Sweden      (open-shell DFT, ESR)
  Elias Rudberg,            KTH Stockholm,                Sweden      (DFT grid and basis info)
  Torgeir A. Ruden,         University of Oslo,           Norway      (Numerical derivatives in ABACUS)
  Kenneth Ruud,             UiT The Arctic U. of Norway,  Norway      (DALTON; ABACUS magnetic properties and much more)
  Pawel Salek,              KTH Stockholm,                Sweden      (DALTON; DFT code)
  Claire C. M. Samson       University of Karlsruhe       Germany     (Boys localization, r12 integrals in ERI)
  Alfredo Sanchez de Meras, University of Valencia,       Spain       (CC module, Cholesky decomposition)
  Trond Saue,               Paul Sabatier University,     France      (direct Fock matrix construction)
  Stephan P. A. Sauer,      University of Copenhagen,     Denmark     (SOPPA(CCSD), SOPPA prop., AOSOPPA, vibrational g-factors)
  Bernd Schimmelpfennig,    Forschungszentrum Karlsruhe,  Germany     (AMFI module)
  Kristian Sneskov,         Aarhus University,            Denmark     (Polarizable embedding model, QM/MM)
  Arnfinn H. Steindal,      UiT The Arctic U. of Norway,  Norway      (parallel QM/MM, Polarizable embedding model)
  Casper Steinmann,         Univ. of Southern Denmark,    Denmark     (QFIT, Polarizable embedding model)
  K. O. Sylvester-Hvid,     University of Copenhagen,     Denmark     (MC-SCRF)
  Peter R. Taylor,          VLSCI/Univ. of Melbourne,     Australia   (Symmetry handling ABACUS, integral transformation)
  Andrew M. Teale,          University of Nottingham,     England     (DFT-AC, DFT-D)
  David P. Tew,             University of Bristol,        England     (CCSD(R12))
  Olav Vahtras,             KTH Stockholm,                Sweden      (triplet response, spin-orbit, ESR, TDDFT, open-shell DFT)
  David J. Wilson,          La Trobe University,          Australia   (DFT Hessian and DFT magnetizabilities)
  Hans Agren,               KTH Stockholm,                Sweden      (SIRIUS module, RESPONS, MC-SCRF solvation model)
 --------------------------------------------------------------------------------

     Date and time (Linux)  : Sat Jun  6 17:38:53 2015
     Host name              : adm-106152.local                        

 * Work memory size             :    64000000 =  488.28 megabytes.

 * Directories for basis set searches:
   1) /Users/hjj/progs/gitDalton/build_master/test/geoopt_preopt2
   2) /Users/hjj/progs/gitDalton/build_master/basis


Compilation information
-----------------------

 Who compiled             | hjj
 Host                     | adm-106152.local
 System                   | Darwin-14.3.0
 CMake generator          | Unix Makefiles
 Processor                | x86_64
 64-bit integers          | OFF
 MPI                      | OFF
 Fortran compiler         | /opt/local/bin/gfortran
 Fortran compiler version | GNU Fortran (MacPorts gcc49 4.9.2_1) 4.9.2
 C compiler               | /opt/local/bin/gcc
 C compiler version       | gcc (MacPorts gcc49 4.9.2_1) 4.9.2
 C++ compiler             | /opt/local/bin/g++
 C++ compiler version     | g++ (MacPorts gcc49 4.9.2_1) 4.9.2
 BLAS                     | /opt/local/lib/libopenblas.dylib
 LAPACK                   | /usr/lib/liblapack.dylib
 Static linking           | OFF
 Last Git revision        | 54b942c73c5926657af79050382b047d0b7e68ca
 Git branch               | master
 Configuration time       | 2015-06-06 17:38:08.397954


   Content of the .dal input file
 ----------------------------------

**DALTON                                          
.OPTIMIZE                                         
*OPTIMIZE                                         
.PREOPT                                           
1                                                 
STO-3G                                            
**WAVE FUNCTIONS                                  
.HF                                               
**END OF                                          


   Content of the .mol file
 ----------------------------

BASIS                                                                          
6-31G*                                                                         
Acrolein                                                                       
------------------------                                                       
AtomTypes=3 NoSymmetry Angstrom                                                
Charge=6.0 Atoms=3                                                             
C             -0.145335   -0.546770    0.000607                                
C              1.274009   -0.912471   -0.000167                                
C              1.630116   -2.207690   -0.000132                                
Charge=8.0 Atoms=1                                                             
O             -0.560104    0.608977    0.000534                                
Charge=1.0 Atoms=4                                                             
H             -0.871904   -1.386459    0.001253                                
H              2.004448   -0.101417   -0.000710                                
H              0.879028   -3.000685    0.000484                                
H              2.675323   -2.516779   -0.000673                                


       *******************************************************************
       *********** Output from DALTON general input processing ***********
       *******************************************************************

 --------------------------------------------------------------------------------
   Overall default print level:    0
   Print level for DALTON.STAT:    1

    "Old" integral transformation used (limited to max 255 basis functions)
 --------------------------------------------------------------------------------


 Chosen parameters for *OPTIMI :
 -------------------------------

 Default 1st order method will be used:   BFGS update.
 Optimization will be performed in redundant internal coordinates (by default).
 Model Hessian will be used as initial Hessian.
 The model Hessian parameters of Roland Lindh will be used.


 Preoptimization will be performed with the basis set(s):
      STO-3G                                                      

 Trust region method will be used to control step (default).

 Convergence threshold for gradient set to :      1.00D-04
 Convergence threshold for energy set to   :      1.00D-06
 Convergence threshold for step set to     :      1.00D-04
 Number of convergence criteria set to     :   2


              >>>>>>>>>>>>>>>>>>>>>>>>>>>>>>>>>>>>>>>>>>>>>>>>>>>>>
              >>>>>>>>>> 1st Order Geometry Optimization >>>>>>>>>>
              >>>>>>>>>>>>>>>>>>>>>>>>>>>>>>>>>>>>>>>>>>>>>>>>>>>>>


 Reading .mol file to determine number of atoms for parallel runs.


   ****************************************************************************
   *************** Output of molecule and basis set information ***************
   ****************************************************************************


    The two title cards from your ".mol" input:
    ------------------------------------------------------------------------
 1: Acrolein                                                                
 2: ------------------------                                                
    ------------------------------------------------------------------------

  Coordinates are entered in Angstrom and converted to atomic units.
          - Conversion factor : 1 bohr = 0.52917721 A

  Atomic type no.    1
  --------------------
  Nuclear charge:   6.00000
  Number of symmetry independent centers:    3
  Number of basis sets to read;    2
  Basis set file used for this atomic type with Z =   6 :
     "/Users/hjj/progs/gitDalton/build_master/basis/STO-3G"

  Atomic type no.    2
  --------------------
  Nuclear charge:   8.00000
  Number of symmetry independent centers:    1
  Number of basis sets to read;    2
  Basis set file used for this atomic type with Z =   8 :
     "/Users/hjj/progs/gitDalton/build_master/basis/STO-3G"

  Atomic type no.    3
  --------------------
  Nuclear charge:   1.00000
  Number of symmetry independent centers:    4
  Number of basis sets to read;    2
  Basis set file used for this atomic type with Z =   1 :
     "/Users/hjj/progs/gitDalton/build_master/basis/STO-3G"


                         SYMGRP: Point group information
                         -------------------------------

@    Point group: C1 


                                 Isotopic Masses
                                 ---------------

                           C          12.000000
                           C          12.000000
                           C          12.000000
                           O          15.994915
                           H           1.007825
                           H           1.007825
                           H           1.007825
                           H           1.007825

                       Total mass:    56.026215 amu
                       Natural abundance:  96.446 %

 Center-of-mass coordinates (a.u.):    0.973773   -1.393790    0.000425


  Atoms and basis sets
  --------------------

  Number of atom types :    3
  Total number of atoms:    8

  Basis set used is "STO-3G" from the basis set library.

  label    atoms   charge   prim   cont     basis
  ----------------------------------------------------------------------
  C           3    6.0000    15     5      [6s3p|2s1p]                                        
  O           1    8.0000    15     5      [6s3p|2s1p]                                        
  H           4    1.0000     3     1      [3s|1s]                                            
  ----------------------------------------------------------------------
  total:      8   30.0000    72    24
  ----------------------------------------------------------------------

  Threshold for neglecting AO integrals:  1.00D-12


  Cartesian Coordinates (a.u.)
  ----------------------------

  Total number of coordinates:   24
  C       :     1  x  -0.2746433464    2  y  -1.0332455534    3  z   0.0011470638
  C       :     4  x   2.4075280908    5  y  -1.7243202870    6  z  -0.0003155843
  C       :     7  x   3.0804727920    8  y  -4.1719294689    9  z  -0.0002494438
  O       :    10  x  -1.0584431615   11  y   1.1507997464   12  z   0.0010091138
  H       :    13  x  -1.6476597673   14  y  -2.6200277935   15  z   0.0023678268
  H       :    16  x   3.7878577518   17  y  -0.1916503544   18  z  -0.0013417055
  H       :    19  x   1.6611221762   20  y  -5.6704728374   21  z   0.0009146274
  H       :    22  x   5.0556277659   23  y  -4.7560230271   24  z  -0.0012717857


   Interatomic separations (in Angstrom):
   --------------------------------------

            C           C           C           O           H           H     
            ------      ------      ------      ------      ------      ------
 C     :    0.000000
 C     :    1.465700    0.000000
 C     :    2.431231    1.343281    0.000000
 O     :    1.227919    2.383018    3.568007    0.000000
 H     :    1.110397    2.197637    2.633349    2.019650    0.000000
 H     :    2.195429    1.091490    2.139278    2.661125    3.150355    0.000000
 H     :    2.659139    2.125241    1.092234    3.885970    2.381489    3.110036
 H     :    3.440501    2.130137    1.089951    4.498704    3.722962    2.506800

            H           H     
            ------      ------
 H     :    0.000000
 H     :    1.860334    0.000000


  Max    interatomic separation is    4.4987 Angstrom (    8.5013 Bohr)
  between atoms    8 and    4, "H     " and "O     ".

  Min HX interatomic separation is    1.0900 Angstrom (    2.0597 Bohr)

  Min YX interatomic separation is    1.2279 Angstrom (    2.3204 Bohr)


  Bond distances (Angstrom):
  --------------------------

                  atom 1     atom 2       distance
                  ------     ------       --------
  bond distance:  C          C            1.465700
  bond distance:  C          C            1.343281
  bond distance:  O          C            1.227919
  bond distance:  H          C            1.110397
  bond distance:  H          C            1.091490
  bond distance:  H          C            1.092234
  bond distance:  H          C            1.089951


  Bond angles (degrees):
  ----------------------

                  atom 1     atom 2     atom 3         angle
                  ------     ------     ------         -----
  bond angle:     C          C          O            124.190
  bond angle:     C          C          H            116.421
  bond angle:     O          C          H            119.389
  bond angle:     C          C          C            119.821
  bond angle:     C          C          H            117.558
  bond angle:     C          C          H            122.621
  bond angle:     C          C          H            121.182
  bond angle:     C          C          H            121.847
  bond angle:     H          C          H            116.971




 Principal moments of inertia (u*A**2) and principal axes
 --------------------------------------------------------

   IA      10.696865         -0.668732    0.743503    0.000230
   IB     108.794831          0.743503    0.668732   -0.000587
   IC     119.491696          0.000590    0.000221    1.000000


 Rotational constants
 --------------------

@    The molecule is planar.

               A                   B                   C

          47245.5253           4645.2483           4229.4069 MHz
            1.575941            0.154949            0.141078 cm-1


@  Nuclear repulsion energy :  102.664846860515 Hartree


                     .---------------------------------------.
                     | Starting in Integral Section (HERMIT) |
                     `---------------------------------------'



 ***************************************************************************************
 ****************** Output from **INTEGRALS input processing (HERMIT) ******************
 ***************************************************************************************


 - Using defaults, no **INTEGRALS input found

 Default print level:        1

 * Nuclear model: Point charge

 Calculation of one- and two-electron Hamiltonian integrals.

 Center of mass  (bohr):      0.973773359129     -1.393789716280      0.000424788898
 Operator center (bohr):      0.000000000000      0.000000000000      0.000000000000
 Gauge origin    (bohr):      0.000000000000      0.000000000000      0.000000000000
 Dipole origin   (bohr):      0.000000000000      0.000000000000      0.000000000000


     ************************************************************************
     ************************** Output from HERINT **************************
     ************************************************************************


 Threshold for neglecting two-electron integrals:  1.00D-12
 HERMIT - Number of two-electron integrals written:       43383 ( 96.1% )
 HERMIT - Megabytes written:                              0.502

 >>>  Time used in TWOINT     is   0.31 seconds
 >>>> Total CPU  time used in HERMIT:   0.38 seconds
 >>>> Total wall time used in HERMIT:   0.10 seconds


                        .----------------------------------.
                        | End of Integral Section (HERMIT) |
                        `----------------------------------'



                   .--------------------------------------------.
                   | Starting in Wave Function Section (SIRIUS) |
                   `--------------------------------------------'


 *** Output from Huckel module :

     Using EWMO model:          T
     Using EHT  model:          F
     Number of Huckel orbitals each symmetry:   24

 EWMO - Energy Weighted Maximum Overlap - is a Huckel type method,
        which normally is better than Extended Huckel Theory.
 Reference: Linderberg and Ohrn, Propagators in Quantum Chemistry (Wiley, 1973)

 Huckel EWMO eigenvalues for symmetry :  1
          -20.684561     -11.357400     -11.351264     -11.346036      -1.724840
           -1.477979      -1.046134      -1.031570      -0.744448      -0.729231
           -0.672044      -0.551742      -0.540543      -0.516178      -0.438809
           -0.319925      -0.220785      -0.162868      -0.131432      -0.129120
           -0.123435      -0.114530      -0.093199      -0.085427

 **********************************************************************
 *SIRIUS* a direct, restricted step, second order MCSCF program       *
 **********************************************************************

 
     Date and time (Linux)  : Sat Jun  6 17:38:53 2015
     Host name              : adm-106152.local                        

 Title lines from ".mol" input file:
     Acrolein                                                                
     ------------------------                                                

 Print level on unit LUPRI =   2 is   0
 Print level on unit LUW4  =   2 is   5

@    Restricted, closed shell Hartree-Fock calculation.

 Initial molecular orbitals are obtained according to
 ".MOSTART EWMO  " input option

     Wave function specification
     ============================
@    Wave function type        >>> HF <<<
@    Number of closed shell electrons          30
@    Number of electrons in active shells       0
@    Total charge of the molecule               0

@    Spin multiplicity and 2 M_S                1         0
@    Total number of symmetries                 1 (point group: C1 )
@    Reference state symmetry                   1 (irrep name : A  )

     Orbital specifications
     ======================
@    Abelian symmetry species          All |    1
@                                          |  A  
                                       --- |  ---
@    Occupied SCF orbitals              15 |   15
@    Secondary orbitals                  9 |    9
@    Total number of orbitals           24 |   24
@    Number of basis functions          24 |   24

     Optimization information
     ========================
@    Number of configurations                 1
@    Number of orbital rotations            135
     ------------------------------------------
@    Total number of variables              136

     Maximum number of Fock   iterations      0
     Maximum number of DIIS   iterations     60
     Maximum number of QC-SCF iterations     60
     Threshold for SCF convergence     1.00D-05


 ***********************************************
 ***** DIIS acceleration of SCF iterations *****
 ***********************************************

 C1-DIIS algorithm; max error vectors =    8

 Iter      Total energy        Error norm    Delta(E)  DIIS dim.
 -----------------------------------------------------------------------------
     (Precalculated two-electron integrals are transformed to P-supermatrix elements.
      Threshold for discarding integrals :  1.00D-12 )
@  1    -187.899812856        2.07639D+00   -1.88D+02    1
      Virial theorem: -V/T =      2.002797
@      MULPOP C       0.93; C       0.24; C       0.42; O      -1.03; H      -0.16; H      -0.14; H      -0.12; H      -0.13; 
 -----------------------------------------------------------------------------
@  2    -188.128250931        1.56557D+00   -2.28D-01    2
      Virial theorem: -V/T =      2.009880
@      MULPOP C      -0.46; C      -0.17; C      -0.29; O       0.50; H       0.05; H       0.13; H       0.12; H       0.12; 
 -----------------------------------------------------------------------------
@  3    -188.297636774        1.20815D-01   -1.69D-01    3
      Virial theorem: -V/T =      2.008254
@      MULPOP C       0.17; C      -0.09; C      -0.11; O      -0.23; H       0.03; H       0.08; H       0.08; H       0.08; 
 -----------------------------------------------------------------------------
@  4    -188.299756165        3.02874D-02   -2.12D-03    4
      Virial theorem: -V/T =      2.008340
@      MULPOP C       0.12; C      -0.08; C      -0.10; O      -0.21; H       0.05; H       0.08; H       0.07; H       0.07; 
 -----------------------------------------------------------------------------
@  5    -188.299927443        9.29609D-03   -1.71D-04    5
      Virial theorem: -V/T =      2.008303
@      MULPOP C       0.13; C      -0.08; C      -0.11; O      -0.21; H       0.05; H       0.08; H       0.07; H       0.07; 
 -----------------------------------------------------------------------------
@  6    -188.299940841        2.77430D-03   -1.34D-05    6
      Virial theorem: -V/T =      2.008305
@      MULPOP C       0.13; C      -0.08; C      -0.10; O      -0.21; H       0.05; H       0.08; H       0.07; H       0.07; 
 -----------------------------------------------------------------------------
@  7    -188.299941859        9.55385D-04   -1.02D-06    7
      Virial theorem: -V/T =      2.008306
@      MULPOP C       0.13; C      -0.08; C      -0.10; O      -0.21; H       0.05; H       0.08; H       0.07; H       0.07; 
 -----------------------------------------------------------------------------
@  8    -188.299941983        2.92032D-04   -1.24D-07    8
      Virial theorem: -V/T =      2.008306
@      MULPOP C       0.13; C      -0.08; C      -0.10; O      -0.21; H       0.05; H       0.08; H       0.07; H       0.07; 
 -----------------------------------------------------------------------------
@  9    -188.299941998        6.56552D-05   -1.55D-08    8
      Virial theorem: -V/T =      2.008306
@      MULPOP C       0.13; C      -0.08; C      -0.10; O      -0.21; H       0.05; H       0.08; H       0.07; H       0.07; 
 -----------------------------------------------------------------------------
@ 10    -188.299941999        1.04563D-05   -6.43D-10    8
      Virial theorem: -V/T =      2.008306
@      MULPOP C       0.13; C      -0.08; C      -0.10; O      -0.21; H       0.05; H       0.08; H       0.07; H       0.07; 
 -----------------------------------------------------------------------------
@ 11    -188.299941999        4.52559D-06   -1.83D-11    8

@ *** DIIS converged in  11 iterations !
@     Converged SCF energy, gradient:   -188.299941998682    4.53D-06
    - total time used in SIRFCK :              0.00 seconds


 *** SCF orbital energy analysis ***

 Number of electrons :   30
 Orbital occupations :   15

 Sym       Hartree-Fock orbital energies

1 A     -20.28345517   -11.11843522   -11.04780815   -11.04373515    -1.31946233
         -1.01783807    -0.81794544    -0.72777641    -0.60500356    -0.59215067
         -0.50720779    -0.49720400    -0.46115702    -0.33896744    -0.31675188
          0.21779738     0.39354407     0.59730850     0.63439539     0.66339088
          0.74579682     0.85409187     0.93328729     1.04904728

    E(LUMO) :     0.21779738 au (symmetry 1)
  - E(HOMO) :    -0.31675188 au (symmetry 1)
  ------------------------------------------
    gap     :     0.53454927 au

 >>> Writing SIRIFC interface file

 >>>> CPU and wall time for SCF :       0.069       0.022


                       .-----------------------------------.
                       | >>> Final results from SIRIUS <<< |
                       `-----------------------------------'


@    Spin multiplicity:           1
@    Spatial symmetry:            1 ( irrep  A   in C1  )
@    Total charge of molecule:    0

@    Final HF energy:            -188.299941998682                 
@    Nuclear repulsion:           102.664846860515
@    Electronic energy:          -290.964788859197

@    Final gradient norm:           0.000004525585

 
     Date and time (Linux)  : Sat Jun  6 17:38:53 2015
     Host name              : adm-106152.local                        

File label for MO orbitals:   6Jun15   FOCKDIIS

 (Only coefficients >0.0100 are printed.)

 Molecular orbitals for symmetry species 1  (A  )
 ------------------------------------------------

    Orbital         1        2        3        4        5        6        7
   1 C   :1s    -0.0005  -0.9925   0.0006   0.0016   0.1251   0.0609   0.1337
   2 C   :1s     0.0071  -0.0333  -0.0003  -0.0064  -0.2879  -0.1706  -0.4093
   3 C   :2px   -0.0021  -0.0003  -0.0003  -0.0042   0.0467  -0.1105  -0.1152
   4 C   :2py    0.0059  -0.0004   0.0003   0.0011  -0.1464   0.0888   0.1343
   6 C   :1s     0.0000   0.0006   0.0888   0.9882   0.0228   0.1795   0.0615
   7 C   :1s    -0.0003   0.0061  -0.0044   0.0368  -0.0553  -0.4710  -0.1836
   8 C   :2px    0.0000  -0.0041  -0.0012  -0.0002   0.0292   0.0106   0.1789
   9 C   :2py   -0.0005   0.0013   0.0042  -0.0018  -0.0080   0.0946  -0.1675
  11 C   :1s    -0.0000   0.0004   0.9884  -0.0882   0.0050   0.1589  -0.1473
  12 C   :1s    -0.0001  -0.0001   0.0348  -0.0109  -0.0121  -0.4204   0.4335
  13 C   :2px   -0.0001  -0.0000  -0.0003   0.0013   0.0026   0.0384   0.0596
  14 C   :2py   -0.0000   0.0000   0.0010  -0.0045  -0.0060  -0.1055  -0.0670
  16 O   :1s    -0.9943  -0.0002   0.0000  -0.0000   0.2167  -0.0456  -0.0768
  17 O   :1s    -0.0258   0.0057  -0.0001   0.0003  -0.7602   0.1766   0.3284
  18 O   :2px   -0.0019   0.0007  -0.0000   0.0002  -0.0576  -0.0175  -0.0637
  19 O   :2py    0.0052  -0.0016   0.0001  -0.0001   0.1551   0.0019   0.0914
  21 H   :1s    -0.0002   0.0065  -0.0001   0.0001  -0.0333  -0.0454  -0.1496
  22 H   :1s     0.0002  -0.0000  -0.0005  -0.0067  -0.0091  -0.1032  -0.0641
  23 H   :1s     0.0000   0.0001  -0.0067   0.0007  -0.0022  -0.0999   0.1560
  24 H   :1s     0.0000   0.0001  -0.0067   0.0007  -0.0013  -0.0926   0.1965

    Orbital         8        9       10       11       12       13       14
   1 C   :1s    -0.0955  -0.0066   0.0583   0.0248   0.0193  -0.0000  -0.0037
   2 C   :1s     0.3083   0.0261  -0.1980  -0.0867  -0.0766   0.0000   0.0132
   3 C   :2px   -0.2065  -0.3806  -0.0455  -0.0073  -0.2411   0.0003   0.1680
   4 C   :2py   -0.1785  -0.0987  -0.1941  -0.3326   0.2163   0.0002   0.0518
   5 C   :2pz    0.0002   0.0003   0.0001   0.0001   0.0001   0.5649  -0.0001
   6 C   :1s     0.1048  -0.0162  -0.0386  -0.0048  -0.0127   0.0000  -0.0380
   7 C   :1s    -0.3235   0.0543   0.1118   0.0321   0.0521  -0.0000   0.1688
   8 C   :2px   -0.1606   0.3094  -0.0128   0.0384   0.2504   0.0002  -0.2992
   9 C   :2py   -0.1426  -0.0433  -0.3260   0.3558   0.1025   0.0000   0.0652
  10 C   :2pz    0.0001  -0.0002   0.0001  -0.0000  -0.0002   0.3246   0.0002
  11 C   :1s    -0.0529   0.0110   0.0112   0.0257  -0.0009  -0.0000   0.0074
  12 C   :1s     0.1658  -0.0466  -0.0569  -0.0747   0.0038   0.0000  -0.0240
  13 C   :2px   -0.0615   0.2486  -0.3112  -0.0034  -0.3795   0.0001   0.0608
  14 C   :2py   -0.1732   0.2302   0.3025  -0.3177  -0.0996   0.0001  -0.0662
  15 C   :2pz    0.0001  -0.0002   0.0001   0.0001   0.0003   0.2162  -0.0000
  16 O   :1s     0.0434   0.0131  -0.0697  -0.0586   0.0384   0.0000  -0.0013
  17 O   :1s    -0.1959  -0.0668   0.3491   0.3170  -0.2119  -0.0000   0.0083
  18 O   :2px   -0.1013  -0.2905  -0.2355  -0.2749  -0.1022   0.0004  -0.8118
  19 O   :2py   -0.1505  -0.1628   0.2724   0.4214  -0.3770   0.0001  -0.2918
  20 O   :2pz    0.0001   0.0002   0.0001   0.0001   0.0002   0.5400   0.0006
  21 H   :1s     0.2793   0.2239   0.0398   0.2009  -0.0492  -0.0000  -0.3518
  22 H   :1s    -0.2621   0.1570  -0.1364   0.2902   0.2612  -0.0000  -0.1095
  23 H   :1s     0.1812  -0.2786  -0.0280   0.1955   0.3304  -0.0000  -0.0500
  24 H   :1s     0.0609   0.1151  -0.3329   0.0400  -0.3289  -0.0000   0.0935

    Orbital        15       16       17       18       19       20       21
   1 C   :1s    -0.0000   0.0000   0.0000  -0.0087  -0.1912   0.0221  -0.0047
   2 C   :1s     0.0000  -0.0000  -0.0000   0.0548   1.1777  -0.1411   0.0481
   3 C   :2px    0.0001  -0.0003  -0.0004   0.3036   0.0575  -0.0617  -0.8875
   4 C   :2py    0.0001  -0.0001  -0.0002   0.2721  -0.4502   0.1694  -0.2752
   5 C   :2pz    0.2200  -0.4925  -0.6878  -0.0003   0.0001  -0.0000   0.0006
   6 C   :1s    -0.0000  -0.0000   0.0000  -0.0627   0.1074   0.0101  -0.1826
   7 C   :1s     0.0000   0.0000  -0.0000   0.3868  -0.6355  -0.0350   1.2087
   8 C   :2px   -0.0003  -0.0003   0.0004   0.5064   0.4264  -0.1363   0.0240
   9 C   :2py   -0.0001  -0.0001   0.0001   0.3646  -0.2277   0.2893   0.1794
  10 C   :2pz   -0.5445  -0.4406   0.7090  -0.0003  -0.0002   0.0000  -0.0000
  11 C   :1s    -0.0000   0.0000  -0.0000   0.0072  -0.0428  -0.2030   0.0529
  12 C   :1s     0.0000  -0.0000   0.0000  -0.0291   0.2525   1.2990  -0.3351
  13 C   :2px   -0.0003   0.0004  -0.0003   0.5919   0.3304   0.0436  -0.0506
  14 C   :2py   -0.0001   0.0001  -0.0001   0.1787  -0.0363  -0.4684  -0.4404
  15 C   :2pz   -0.5839   0.6462  -0.5041  -0.0004  -0.0002   0.0001   0.0001
  16 O   :1s     0.0000   0.0000  -0.0000   0.0164   0.0222   0.0089   0.0032
  17 O   :1s    -0.0000  -0.0000   0.0000  -0.1159  -0.1259  -0.0664  -0.0220
  18 O   :2px    0.0002   0.0003   0.0003  -0.1562  -0.0429  -0.0290   0.2277
  19 O   :2py    0.0001   0.0002   0.0001   0.1051   0.1892   0.0698   0.1224
  20 O   :2pz    0.4281   0.5800   0.4825   0.0001  -0.0000  -0.0000  -0.0002
  21 H   :1s     0.0000   0.0000  -0.0000   0.3536  -0.8906   0.2029  -0.6601
  22 H   :1s     0.0000   0.0000   0.0001  -0.8545   0.2436  -0.0710  -0.6700
  23 H   :1s     0.0000   0.0000  -0.0000   0.5707   0.1133  -0.9338  -0.1060
  24 H   :1s    -0.0000   0.0000   0.0000  -0.5128  -0.4761  -0.7981   0.1068

    Orbital        22       23       24
   1 C   :1s    -0.1197   0.0219  -0.0416
   2 C   :1s     0.7863  -0.1584   0.2744
   3 C   :2px   -0.1509  -0.7139  -0.1344
   4 C   :2py    0.6194   0.2398   0.8610
   6 C   :1s     0.0565   0.0276  -0.0685
   7 C   :1s    -0.3963  -0.2294   0.5384
   8 C   :2px    0.2401  -0.9605  -0.1172
   9 C   :2py    0.4815   0.3450  -1.0073
  11 C   :1s    -0.0334  -0.0458   0.0822
  12 C   :1s     0.2448   0.3424  -0.6502
  13 C   :2px   -0.7197   0.5356   0.3586
  14 C   :2py    0.3978   0.7086  -0.6965
  16 O   :1s     0.0851   0.0284   0.0708
  17 O   :1s    -0.6101  -0.2139  -0.5387
  18 O   :2px   -0.2566   0.0486  -0.2079
  19 O   :2py    0.6437   0.2582   0.5182
  21 H   :1s    -0.0821  -0.1848   0.2423
  22 H   :1s    -0.2586   0.3660   0.3636
  23 H   :1s    -0.2422   0.5366   0.0484
  24 H   :1s     0.5372  -0.3580  -0.1464



 >>>> Total CPU  time used in SIRIUS :      0.11 seconds
 >>>> Total wall time used in SIRIUS :      0.04 seconds

 
     Date and time (Linux)  : Sat Jun  6 17:38:53 2015
     Host name              : adm-106152.local                        


                     .---------------------------------------.
                     | End of Wave Function Section (SIRIUS) |
                     `---------------------------------------'


     Order of analytical energy-derivatives available:   2
     This will be the default.

 Center of mass dipole origin  :    0.973773   -1.393790    0.000425

 Center of mass gauge origin   :    0.973773   -1.393790    0.000425


                 .------------------------------------------------.
                 | Starting in Static Property Section (ABACUS) - |
                 `------------------------------------------------'


 
     Date and time (Linux)  : Sat Jun  6 17:38:53 2015
     Host name              : adm-106152.local                        

 Largest deviation from tra-rot symmetry is in gradient element  3:  3.69E-07


   ***************************************************************************
   ************************ FINAL RESULTS from ABACUS ************************
   ***************************************************************************


 
     Date and time (Linux)  : Sat Jun  6 17:38:54 2015
     Host name              : adm-106152.local                        


                             Molecular geometry (au)
                             -----------------------

 C         -0.2746433464           -1.0332455534            0.0011470638
 C          2.4075280908           -1.7243202870           -0.0003155843
 C          3.0804727920           -4.1719294689           -0.0002494438
 O         -1.0584431615            1.1507997464            0.0010091138
 H         -1.6476597673           -2.6200277935            0.0023678268
 H          3.7878577518           -0.1916503544           -0.0013417055
 H          1.6611221762           -5.6704728374            0.0009146274
 H          5.0556277659           -4.7560230271           -0.0012717857





                        Molecular wave function and energy
                        ----------------------------------

     Spatial symmetry   1 ( A   )
     Spin multiplicity  1
     2 * M_S            0
     State number       1
     Total charge       0

     Total energy       -188.2999419987 au (Hartrees)
                         -5123.90206844 eV
                           -494381.4215 kJ/mol
                           -118159.9956 kcal/mol


                   Scalar Breit-Pauli relativistic corrections
                   -------------------------------------------

     Darwin correction:                          0.2461804932 au
     Mass-velocity correction:                  -0.3142784429 au

     Total relativistic correction:             -0.0680979498 au (0.0362%)
     Non-relativistic + relativistic energy:  -188.3680399485 au



      (Note that these corrections are NOT included in the results below.)


                             Molecular gradient (au)
                             -----------------------

 C          0.0426467169           -0.0219449223           -0.0000147804
 C         -0.0390247269            0.0541854203            0.0000059515
 C          0.0039330706           -0.0383672502            0.0000013064
 O         -0.0040019068            0.0062100716           -0.0000015650
 H         -0.0085123342           -0.0007603708            0.0000044398
 H          0.0045214468            0.0066028665            0.0000001425
 H         -0.0063274470           -0.0056946816            0.0000073838
 H          0.0067651807           -0.0002311336           -0.0000028786





                                  Dipole moment
                                  -------------

                 au               Debye          C m (/(10**-30)
              0.815057           2.071667           6.910337


                             Dipole moment components
                             ------------------------

                 au               Debye          C m (/(10**-30)

      x      0.38569865         0.98034811         3.27008931
      y     -0.71802066        -1.82502637        -6.08763269
      z     -0.00003212        -0.00008164        -0.00027232


   Units:   1 a.u. =   2.54175 Debye 
            1 a.u. =   8.47835 (10**-30) C m (SI)




   Interatomic separations (in Angstrom):
   --------------------------------------

            C           C           C           O           H           H     
            ------      ------      ------      ------      ------      ------
 C     :    0.000000
 C     :    1.465700    0.000000
 C     :    2.431231    1.343281    0.000000
 O     :    1.227919    2.383018    3.568007    0.000000
 H     :    1.110397    2.197637    2.633349    2.019650    0.000000
 H     :    2.195429    1.091490    2.139278    2.661125    3.150355    0.000000
 H     :    2.659139    2.125241    1.092234    3.885970    2.381489    3.110036
 H     :    3.440501    2.130137    1.089951    4.498704    3.722962    2.506800

            H           H     
            ------      ------
 H     :    0.000000
 H     :    1.860334    0.000000


  Max    interatomic separation is    4.4987 Angstrom (    8.5013 Bohr)
  between atoms    8 and    4, "H     " and "O     ".

  Min HX interatomic separation is    1.0900 Angstrom (    2.0597 Bohr)

  Min YX interatomic separation is    1.2279 Angstrom (    2.3204 Bohr)


  Bond distances (Angstrom):
  --------------------------

                  atom 1     atom 2       distance
                  ------     ------       --------
  bond distance:  C          C            1.465700
  bond distance:  C          C            1.343281
  bond distance:  O          C            1.227919
  bond distance:  H          C            1.110397
  bond distance:  H          C            1.091490
  bond distance:  H          C            1.092234
  bond distance:  H          C            1.089951


  Bond angles (degrees):
  ----------------------

                  atom 1     atom 2     atom 3         angle
                  ------     ------     ------         -----
  bond angle:     C          C          O            124.190
  bond angle:     C          C          H            116.421
  bond angle:     O          C          H            119.389
  bond angle:     C          C          C            119.821
  bond angle:     C          C          H            117.558
  bond angle:     C          C          H            122.621
  bond angle:     C          C          H            121.182
  bond angle:     C          C          H            121.847
  bond angle:     H          C          H            116.971




 CPU time statistics for ABACUS
 ------------------------------




 >>>> Total CPU  time used in ABACUS:   0.47 seconds
 >>>> Total wall time used in ABACUS:   0.22 seconds


                   .-------------------------------------------.
                   | End of Static Property Section (ABACUS) - |
                   `-------------------------------------------'



           :::::::::::::::::::::::::::::::::::::::::::::::::::::::::::
           ::::::::::::::: Optimization Control Center :::::::::::::::
           :::::::::::::::::::::::::::::::::::::::::::::::::::::::::::



                                Next geometry (au)
                                ------------------

 C         -0.3179264706           -1.0093098290            0.0010884542
 C          2.4068723639           -1.7772943292           -0.0001559999
 C          3.0981402026           -4.1590086600           -0.0001015230
 O         -1.0629866500            1.1801611160            0.0009625404
 H         -1.6730314768           -2.5934083473            0.0024864486
 H          3.7845707081           -0.2638509033           -0.0014141293
 H          1.7124069598           -5.6656154262            0.0006956453
 H          5.0638166645           -4.7285431963           -0.0013013238





                             Optimization information
                             ------------------------

 Iteration number               :       0
 End of optimization            :       F 
 Energy at this geometry is     :    -188.299942
 Norm of gradient               :       0.092503
 Norm of step                   :       0.201778
 Updated trust radius           :       0.500000
 Total Hessian index            :       0




 **************************************************************************************
 ****************** Output of molecule and basis set info suppressed ******************
 **************************************************************************************



                     .---------------------------------------.
                     | Starting in Integral Section (HERMIT) |
                     `---------------------------------------'



 ***************************************************************************************
 ****************** Output from **INTEGRALS input processing (HERMIT) ******************
 ***************************************************************************************


 - Using defaults, no **INTEGRALS input found

 Default print level:       -1

 * Nuclear model: Point charge

 Calculation of one- and two-electron Hamiltonian integrals.

 Center of mass  (bohr):      0.967403592004     -1.389097716135      0.000461163041
 Operator center (bohr):      0.000000000000      0.000000000000      0.000000000000
 Gauge origin    (bohr):      0.000000000000      0.000000000000      0.000000000000
 Dipole origin   (bohr):      0.000000000000      0.000000000000      0.000000000000

 Threshold for neglecting two-electron integrals:  1.00D-12
 HERMIT - Number of two-electron integrals written:       43338 ( 96.0% )
 HERMIT - Megabytes written:                              0.502

 >>>  Time used in TWOINT     is   0.30 seconds
 >>>> Total CPU  time used in HERMIT:   0.34 seconds
 >>>> Total wall time used in HERMIT:   0.09 seconds


                        .----------------------------------.
                        | End of Integral Section (HERMIT) |
                        `----------------------------------'



                   .--------------------------------------------.
                   | Starting in Wave Function Section (SIRIUS) |
                   `--------------------------------------------'


 **********************************************************************
 *SIRIUS* a direct, restricted step, second order MCSCF program       *
 **********************************************************************

 (Wave function specification suppressed here, see output above for initial geometry.)


 ***********************************************
 ***** DIIS acceleration of SCF iterations *****
 ***********************************************

 C1-DIIS algorithm; max error vectors =    8

 Iter      Total energy        Error norm    Delta(E)  DIIS dim.
 -----------------------------------------------------------------------------
     (Precalculated two-electron integrals are transformed to P-supermatrix elements.
      Threshold for discarding integrals :  1.00D-12 )
@  1    -188.302805036        6.78395D-02   -2.86D-03    1
      Virial theorem: -V/T =      2.008113
@      MULPOP C       0.12; C      -0.08; C      -0.10; O      -0.20; H       0.05; H       0.08; H       0.07; H       0.07; 
 -----------------------------------------------------------------------------
@  2    -188.303294274        1.90817D-02   -4.89D-04    2
      Virial theorem: -V/T =      2.008128
@      MULPOP C       0.14; C      -0.08; C      -0.12; O      -0.21; H       0.05; H       0.08; H       0.07; H       0.08; 
 -----------------------------------------------------------------------------
@  3    -188.303338845        6.25533D-03   -4.46D-05    3
      Virial theorem: -V/T =      2.008150
@      MULPOP C       0.13; C      -0.08; C      -0.11; O      -0.20; H       0.05; H       0.08; H       0.07; H       0.07; 
 -----------------------------------------------------------------------------
@  4    -188.303343027        2.01551D-03   -4.18D-06    4
      Virial theorem: -V/T =      2.008142
@      MULPOP C       0.13; C      -0.08; C      -0.11; O      -0.20; H       0.05; H       0.08; H       0.07; H       0.07; 
 -----------------------------------------------------------------------------
@  5    -188.303343425        4.75822D-04   -3.98D-07    5
      Virial theorem: -V/T =      2.008143
@      MULPOP C       0.13; C      -0.08; C      -0.11; O      -0.20; H       0.05; H       0.08; H       0.07; H       0.07; 
 -----------------------------------------------------------------------------
@  6    -188.303343456        1.88859D-04   -3.11D-08    6
      Virial theorem: -V/T =      2.008143
@      MULPOP C       0.13; C      -0.08; C      -0.11; O      -0.20; H       0.05; H       0.08; H       0.07; H       0.07; 
 -----------------------------------------------------------------------------
@  7    -188.303343460        5.35716D-05   -4.02D-09    7
      Virial theorem: -V/T =      2.008143
@      MULPOP C       0.13; C      -0.08; C      -0.11; O      -0.20; H       0.05; H       0.08; H       0.07; H       0.07; 
 -----------------------------------------------------------------------------
@  8    -188.303343461        1.21890D-05   -3.18D-10    8
      Virial theorem: -V/T =      2.008143
@      MULPOP C       0.13; C      -0.08; C      -0.11; O      -0.20; H       0.05; H       0.08; H       0.07; H       0.07; 
 -----------------------------------------------------------------------------
@  9    -188.303343461        3.22191D-06   -2.23D-11    8

@ *** DIIS converged in   9 iterations !
@     Converged SCF energy, gradient:   -188.303343460627    3.22D-06
    - total time used in SIRFCK :              0.00 seconds


 *** SCF orbital energy analysis ***

 Number of electrons :   30
 Orbital occupations :   15

 Sym       Hartree-Fock orbital energies

1 A     -20.29060901   -11.12251433   -11.04563127   -11.04319726    -1.32509340
         -1.02278065    -0.81707057    -0.73021640    -0.60823472    -0.59698157
         -0.51453401    -0.49481890    -0.46253989    -0.33997656    -0.32866977
          0.22565723     0.39399396     0.59431660     0.63134693     0.67855887
          0.74287875     0.86353412     0.94693602     1.07219994

    E(LUMO) :     0.22565723 au (symmetry 1)
  - E(HOMO) :    -0.32866977 au (symmetry 1)
  ------------------------------------------
    gap     :     0.55432700 au

 >>> Writing SIRIFC interface file

 >>>> CPU and wall time for SCF :       0.060       0.018


                       .-----------------------------------.
                       | >>> Final results from SIRIUS <<< |
                       `-----------------------------------'


@    Spin multiplicity:           1
@    Spatial symmetry:            1 ( irrep  A   in C1  )
@    Total charge of molecule:    0

@    Final HF energy:            -188.303343460627                 
@    Nuclear repulsion:           102.649499928520
@    Electronic energy:          -290.952843389147

@    Final gradient norm:           0.000003221909

 
     Date and time (Linux)  : Sat Jun  6 17:38:54 2015
     Host name              : adm-106152.local                        



 >>>> Total CPU  time used in SIRIUS :      0.07 seconds
 >>>> Total wall time used in SIRIUS :      0.02 seconds

 
     Date and time (Linux)  : Sat Jun  6 17:38:54 2015
     Host name              : adm-106152.local                        


                     .---------------------------------------.
                     | End of Wave Function Section (SIRIUS) |
                     `---------------------------------------'

 Trust radius increased due to good ratio.
 Updated trust radius   0.50000

     Order of analytical energy-derivatives available:   2
     This will be the default.

 Center of mass dipole origin  :    0.967404   -1.389098    0.000461

 Center of mass gauge origin   :    0.967404   -1.389098    0.000461


                 .------------------------------------------------.
                 | Starting in Static Property Section (ABACUS) - |
                 `------------------------------------------------'


 
     Date and time (Linux)  : Sat Jun  6 17:38:54 2015
     Host name              : adm-106152.local                        

 Largest deviation from tra-rot symmetry is in gradient element  6:  7.16E-08


   ***************************************************************************
   ************************ FINAL RESULTS from ABACUS ************************
   ***************************************************************************


 
     Date and time (Linux)  : Sat Jun  6 17:38:54 2015
     Host name              : adm-106152.local                        


 CPU time statistics for ABACUS
 ------------------------------

 REST       00:00:01     291 %



 >>>> Total CPU  time used in ABACUS:   0.48 seconds
 >>>> Total wall time used in ABACUS:   0.22 seconds


                   .-------------------------------------------.
                   | End of Static Property Section (ABACUS) - |
                   `-------------------------------------------'



           :::::::::::::::::::::::::::::::::::::::::::::::::::::::::::
           ::::::::::::::: Optimization Control Center :::::::::::::::
           :::::::::::::::::::::::::::::::::::::::::::::::::::::::::::



                                Next geometry (au)
                                ------------------

 C         -0.3336586226           -0.9973243059            0.0017666026
 C          2.4049054093           -1.7844925825           -0.0007504035
 C          3.1026635016           -4.1627648263           -0.0009943970
 O         -1.0576472382            1.1931131200            0.0016036592
 H         -1.6814082369           -2.5883015379            0.0012029662
 H          3.7782870719           -0.2662143802           -0.0014223229
 H          1.7316817802           -5.6818878929            0.0020171014
 H          5.0670386361           -4.7289971695           -0.0011630935





                             Optimization information
                             ------------------------

 Iteration number               :       1
 End of optimization            :       F 
 Energy at this geometry is     :    -188.303343
 Energy change from last geom.  :      -0.003401
 Predicted change               :      -0.003020
 Ratio, actual/predicted change :       1.126184
 Norm of gradient               :       0.018650
 Norm of step                   :       0.063106
 Updated trust radius           :       0.500000
 Total Hessian index            :       0




 **************************************************************************************
 ****************** Output of molecule and basis set info suppressed ******************
 **************************************************************************************



                     .---------------------------------------.
                     | Starting in Integral Section (HERMIT) |
                     `---------------------------------------'



 ***************************************************************************************
 ****************** Output from **INTEGRALS input processing (HERMIT) ******************
 ***************************************************************************************


 - Using defaults, no **INTEGRALS input found

 Default print level:       -1

 * Nuclear model: Point charge

 Calculation of one- and two-electron Hamiltonian integrals.

 Center of mass  (bohr):      0.966246838206     -1.385430737740      0.000473914487
 Operator center (bohr):      0.000000000000      0.000000000000      0.000000000000
 Gauge origin    (bohr):      0.000000000000      0.000000000000      0.000000000000
 Dipole origin   (bohr):      0.000000000000      0.000000000000      0.000000000000

 Threshold for neglecting two-electron integrals:  1.00D-12
 HERMIT - Number of two-electron integrals written:       43423 ( 96.2% )
 HERMIT - Megabytes written:                              0.502

 >>>  Time used in TWOINT     is   0.30 seconds
 >>>> Total CPU  time used in HERMIT:   0.34 seconds
 >>>> Total wall time used in HERMIT:   0.09 seconds


                        .----------------------------------.
                        | End of Integral Section (HERMIT) |
                        `----------------------------------'



                   .--------------------------------------------.
                   | Starting in Wave Function Section (SIRIUS) |
                   `--------------------------------------------'


 **********************************************************************
 *SIRIUS* a direct, restricted step, second order MCSCF program       *
 **********************************************************************

 (Wave function specification suppressed here, see output above for initial geometry.)


 ***********************************************
 ***** DIIS acceleration of SCF iterations *****
 ***********************************************

 C1-DIIS algorithm; max error vectors =    8

 Iter      Total energy        Error norm    Delta(E)  DIIS dim.
 -----------------------------------------------------------------------------
     (Precalculated two-electron integrals are transformed to P-supermatrix elements.
      Threshold for discarding integrals :  1.00D-12 )
@  1    -188.303449911        2.31072D-02   -1.06D-04    1
      Virial theorem: -V/T =      2.008194
@      MULPOP C       0.13; C      -0.08; C      -0.11; O      -0.20; H       0.05; H       0.08; H       0.07; H       0.07; 
 -----------------------------------------------------------------------------
@  2    -188.303508502        7.30577D-03   -5.86D-05    2
      Virial theorem: -V/T =      2.008180
@      MULPOP C       0.14; C      -0.08; C      -0.12; O      -0.21; H       0.05; H       0.07; H       0.07; H       0.07; 
 -----------------------------------------------------------------------------
@  3    -188.303514778        2.92104D-03   -6.28D-06    3
      Virial theorem: -V/T =      2.008187
@      MULPOP C       0.13; C      -0.08; C      -0.11; O      -0.20; H       0.05; H       0.07; H       0.07; H       0.07; 
 -----------------------------------------------------------------------------
@  4    -188.303515526        6.27549D-04   -7.48D-07    4
      Virial theorem: -V/T =      2.008182
@      MULPOP C       0.14; C      -0.08; C      -0.12; O      -0.20; H       0.05; H       0.07; H       0.07; H       0.07; 
 -----------------------------------------------------------------------------
@  5    -188.303515574        1.46209D-04   -4.80D-08    5
      Virial theorem: -V/T =      2.008182
@      MULPOP C       0.14; C      -0.08; C      -0.12; O      -0.20; H       0.05; H       0.07; H       0.07; H       0.07; 
 -----------------------------------------------------------------------------
@  6    -188.303515576        5.76218D-05   -2.95D-09    6
      Virial theorem: -V/T =      2.008182
@      MULPOP C       0.14; C      -0.08; C      -0.12; O      -0.20; H       0.05; H       0.07; H       0.07; H       0.07; 
 -----------------------------------------------------------------------------
@  7    -188.303515577        1.80484D-05   -4.14D-10    7
      Virial theorem: -V/T =      2.008182
@      MULPOP C       0.14; C      -0.08; C      -0.12; O      -0.20; H       0.05; H       0.07; H       0.07; H       0.07; 
 -----------------------------------------------------------------------------
@  8    -188.303515577        9.50190D-06   -9.85D-11    8

@ *** DIIS converged in   8 iterations !
@     Converged SCF energy, gradient:   -188.303515576975    9.50D-06
    - total time used in SIRFCK :              0.00 seconds


 *** SCF orbital energy analysis ***

 Number of electrons :   30
 Orbital occupations :   15

 Sym       Hartree-Fock orbital energies

1 A     -20.29270821   -11.12394169   -11.04483658   -11.04256218    -1.32785666
         -1.02118585    -0.81632266    -0.72995908    -0.60763849    -0.59719572
         -0.51650403    -0.49407071    -0.46315495    -0.33964731    -0.32978507
          0.22721950     0.39309835     0.59098810     0.63057154     0.68147792
          0.73814622     0.86559956     0.94576382     1.07370867

    E(LUMO) :     0.22721950 au (symmetry 1)
  - E(HOMO) :    -0.32978507 au (symmetry 1)
  ------------------------------------------
    gap     :     0.55700457 au

 >>> Writing SIRIFC interface file

 >>>> CPU and wall time for SCF :       0.052       0.016


                       .-----------------------------------.
                       | >>> Final results from SIRIUS <<< |
                       `-----------------------------------'


@    Spin multiplicity:           1
@    Spatial symmetry:            1 ( irrep  A   in C1  )
@    Total charge of molecule:    0

@    Final HF energy:            -188.303515576975                 
@    Nuclear repulsion:           102.526216777064
@    Electronic energy:          -290.829732354039

@    Final gradient norm:           0.000009501899

 
     Date and time (Linux)  : Sat Jun  6 17:38:54 2015
     Host name              : adm-106152.local                        



 >>>> Total CPU  time used in SIRIUS :      0.06 seconds
 >>>> Total wall time used in SIRIUS :      0.02 seconds

 
     Date and time (Linux)  : Sat Jun  6 17:38:54 2015
     Host name              : adm-106152.local                        


                     .---------------------------------------.
                     | End of Wave Function Section (SIRIUS) |
                     `---------------------------------------'

 Trust radius increased due to good ratio.
 Updated trust radius   0.50000

     Order of analytical energy-derivatives available:   2
     This will be the default.

 Center of mass dipole origin  :    0.966247   -1.385431    0.000474

 Center of mass gauge origin   :    0.966247   -1.385431    0.000474


                 .------------------------------------------------.
                 | Starting in Static Property Section (ABACUS) - |
                 `------------------------------------------------'


 
     Date and time (Linux)  : Sat Jun  6 17:38:54 2015
     Host name              : adm-106152.local                        

 Largest deviation from tra-rot symmetry is in gradient element  3:  4.20E-06


   ***************************************************************************
   ************************ FINAL RESULTS from ABACUS ************************
   ***************************************************************************


 
     Date and time (Linux)  : Sat Jun  6 17:38:54 2015
     Host name              : adm-106152.local                        


 CPU time statistics for ABACUS
 ------------------------------




 >>>> Total CPU  time used in ABACUS:   0.42 seconds
 >>>> Total wall time used in ABACUS:   0.21 seconds


                   .-------------------------------------------.
                   | End of Static Property Section (ABACUS) - |
                   `-------------------------------------------'



           :::::::::::::::::::::::::::::::::::::::::::::::::::::::::::
           ::::::::::::::: Optimization Control Center :::::::::::::::
           :::::::::::::::::::::::::::::::::::::::::::::::::::::::::::



                                Next geometry (au)
                                ------------------

 C         -0.3378567993           -0.9960684623           -0.0044871240
 C          2.4048164985           -1.7850736008            0.0018583545
 C          3.1025816662           -4.1635986847            0.0045699847
 O         -1.0530926028            1.1965221484           -0.0022334909
 H         -1.6840283238           -2.5892773645            0.0111508789
 H          3.7765956376           -0.2642429764           -0.0001794567
 H          1.7348396392           -5.6864644721           -0.0067792021
 H          5.0680065859           -4.7286661631           -0.0016398319





                             Optimization information
                             ------------------------

 Iteration number               :       2
 End of optimization            :       F 
 Energy at this geometry is     :    -188.303516
 Energy change from last geom.  :      -0.000172
 Predicted change               :      -0.000148
 Ratio, actual/predicted change :       1.165910
 Norm of gradient               :       0.003565
 Norm of step                   :       0.025742
 Updated trust radius           :       0.500000
 Total Hessian index            :       0




 **************************************************************************************
 ****************** Output of molecule and basis set info suppressed ******************
 **************************************************************************************



                     .---------------------------------------.
                     | Starting in Integral Section (HERMIT) |
                     `---------------------------------------'



 ***************************************************************************************
 ****************** Output from **INTEGRALS input processing (HERMIT) ******************
 ***************************************************************************************


 - Using defaults, no **INTEGRALS input found

 Default print level:       -1

 * Nuclear model: Point charge

 Calculation of one- and two-electron Hamiltonian integrals.

 Center of mass  (bohr):      0.966608039925     -1.384550019725     -0.000175945387
 Operator center (bohr):      0.000000000000      0.000000000000      0.000000000000
 Gauge origin    (bohr):      0.000000000000      0.000000000000      0.000000000000
 Dipole origin   (bohr):      0.000000000000      0.000000000000      0.000000000000

 Threshold for neglecting two-electron integrals:  1.00D-12
 HERMIT - Number of two-electron integrals written:       43567 ( 96.5% )
 HERMIT - Megabytes written:                              0.502

 >>>  Time used in TWOINT     is   0.30 seconds
 >>>> Total CPU  time used in HERMIT:   0.34 seconds
 >>>> Total wall time used in HERMIT:   0.09 seconds


                        .----------------------------------.
                        | End of Integral Section (HERMIT) |
                        `----------------------------------'



                   .--------------------------------------------.
                   | Starting in Wave Function Section (SIRIUS) |
                   `--------------------------------------------'


 **********************************************************************
 *SIRIUS* a direct, restricted step, second order MCSCF program       *
 **********************************************************************

 (Wave function specification suppressed here, see output above for initial geometry.)


 ***********************************************
 ***** DIIS acceleration of SCF iterations *****
 ***********************************************

 C1-DIIS algorithm; max error vectors =    8

 Iter      Total energy        Error norm    Delta(E)  DIIS dim.
 -----------------------------------------------------------------------------
     (Precalculated two-electron integrals are transformed to P-supermatrix elements.
      Threshold for discarding integrals :  1.00D-12 )
@  1    -188.303496475        1.14187D-02    1.91D-05    1
      Virial theorem: -V/T =      2.008207
@      MULPOP C       0.14; C      -0.08; C      -0.12; O      -0.20; H       0.05; H       0.07; H       0.07; H       0.07; 
 -----------------------------------------------------------------------------
@  2    -188.303513271        3.74922D-03   -1.68D-05    2
      Virial theorem: -V/T =      2.008200
@      MULPOP C       0.14; C      -0.08; C      -0.12; O      -0.21; H       0.05; H       0.07; H       0.07; H       0.07; 
 -----------------------------------------------------------------------------
@  3    -188.303515618        1.02800D-03   -2.35D-06    3
      Virial theorem: -V/T =      2.008202
@      MULPOP C       0.14; C      -0.08; C      -0.12; O      -0.20; H       0.05; H       0.07; H       0.07; H       0.07; 
 -----------------------------------------------------------------------------
@  4    -188.303515771        5.04578D-04   -1.54D-07    4
      Virial theorem: -V/T =      2.008200
@      MULPOP C       0.14; C      -0.08; C      -0.12; O      -0.20; H       0.05; H       0.07; H       0.07; H       0.07; 
 -----------------------------------------------------------------------------
@  5    -188.303515849        2.45277D-04   -7.78D-08    5
      Virial theorem: -V/T =      2.008200
@      MULPOP C       0.14; C      -0.08; C      -0.12; O      -0.20; H       0.05; H       0.07; H       0.07; H       0.07; 
 -----------------------------------------------------------------------------
@  6    -188.303515884        1.11469D-04   -3.44D-08    6
      Virial theorem: -V/T =      2.008200
@      MULPOP C       0.14; C      -0.08; C      -0.12; O      -0.20; H       0.05; H       0.07; H       0.07; H       0.07; 
 -----------------------------------------------------------------------------
@  7    -188.303515890        4.75926D-05   -6.78D-09    7
      Virial theorem: -V/T =      2.008200
@      MULPOP C       0.14; C      -0.08; C      -0.12; O      -0.20; H       0.05; H       0.07; H       0.07; H       0.07; 
 -----------------------------------------------------------------------------
@  8    -188.303515891        1.23106D-05   -9.14D-10    8
      Virial theorem: -V/T =      2.008200
@      MULPOP C       0.14; C      -0.08; C      -0.12; O      -0.20; H       0.05; H       0.07; H       0.07; H       0.07; 
 -----------------------------------------------------------------------------
@  9    -188.303515891        5.01214D-06   -4.97D-11    8

@ *** DIIS converged in   9 iterations !
@     Converged SCF energy, gradient:   -188.303515891441    5.01D-06
    - total time used in SIRFCK :              0.00 seconds


 *** SCF orbital energy analysis ***

 Number of electrons :   30
 Orbital occupations :   15

 Sym       Hartree-Fock orbital energies

1 A     -20.29300904   -11.12414549   -11.04455443   -11.04231485    -1.32821432
         -1.02059925    -0.81589816    -0.72979845    -0.60730971    -0.59694128
         -0.51678423    -0.49378807    -0.46310269    -0.33952202    -0.32979048
          0.22761268     0.39273678     0.59021461     0.62987446     0.68153047
          0.73659873     0.86601701     0.94462152     1.07375603

    E(LUMO) :     0.22761268 au (symmetry 1)
  - E(HOMO) :    -0.32979048 au (symmetry 1)
  ------------------------------------------
    gap     :     0.55740316 au

 >>> Writing SIRIFC interface file

 >>>> CPU and wall time for SCF :       0.058       0.018


                       .-----------------------------------.
                       | >>> Final results from SIRIUS <<< |
                       `-----------------------------------'


@    Spin multiplicity:           1
@    Spatial symmetry:            1 ( irrep  A   in C1  )
@    Total charge of molecule:    0

@    Final HF energy:            -188.303515891441                 
@    Nuclear repulsion:           102.491310631572
@    Electronic energy:          -290.794826523013

@    Final gradient norm:           0.000005012141

 
     Date and time (Linux)  : Sat Jun  6 17:38:55 2015
     Host name              : adm-106152.local                        



 >>>> Total CPU  time used in SIRIUS :      0.07 seconds
 >>>> Total wall time used in SIRIUS :      0.02 seconds

 
     Date and time (Linux)  : Sat Jun  6 17:38:55 2015
     Host name              : adm-106152.local                        


                     .---------------------------------------.
                     | End of Wave Function Section (SIRIUS) |
                     `---------------------------------------'


 Step rejected because ratio between
        actual energy change :   -0.00000031
 and predicted energy change :   -0.00001166
                          is :          0.03
 Minimum for quadratic model :     0.500174
 Norm of new step            :     0.012876


 **************************************************************************************
 ****************** Output of molecule and basis set info suppressed ******************
 **************************************************************************************



                     .---------------------------------------.
                     | Starting in Integral Section (HERMIT) |
                     `---------------------------------------'



 ***************************************************************************************
 ****************** Output from **INTEGRALS input processing (HERMIT) ******************
 ***************************************************************************************


 - Using defaults, no **INTEGRALS input found

 Default print level:       -1

 * Nuclear model: Point charge

 Calculation of one- and two-electron Hamiltonian integrals.

 Center of mass  (bohr):      0.966427501754     -1.384990225878      0.000148871763
 Operator center (bohr):      0.000000000000      0.000000000000      0.000000000000
 Gauge origin    (bohr):      0.000000000000      0.000000000000      0.000000000000
 Dipole origin   (bohr):      0.000000000000      0.000000000000      0.000000000000

 Threshold for neglecting two-electron integrals:  1.00D-12
 HERMIT - Number of two-electron integrals written:       43444 ( 96.2% )
 HERMIT - Megabytes written:                              0.502

 >>>  Time used in TWOINT     is   0.30 seconds
 >>>> Total CPU  time used in HERMIT:   0.34 seconds
 >>>> Total wall time used in HERMIT:   0.09 seconds


                        .----------------------------------.
                        | End of Integral Section (HERMIT) |
                        `----------------------------------'



                   .--------------------------------------------.
                   | Starting in Wave Function Section (SIRIUS) |
                   `--------------------------------------------'


 **********************************************************************
 *SIRIUS* a direct, restricted step, second order MCSCF program       *
 **********************************************************************

 (Wave function specification suppressed here, see output above for initial geometry.)


 ***********************************************
 ***** DIIS acceleration of SCF iterations *****
 ***********************************************

 C1-DIIS algorithm; max error vectors =    8

 Iter      Total energy        Error norm    Delta(E)  DIIS dim.
 -----------------------------------------------------------------------------
     (Precalculated two-electron integrals are transformed to P-supermatrix elements.
      Threshold for discarding integrals :  1.00D-12 )
@  1    -188.303516634        5.70836D-03   -7.42D-07    1
      Virial theorem: -V/T =      2.008188
@      MULPOP C       0.14; C      -0.08; C      -0.12; O      -0.21; H       0.05; H       0.07; H       0.07; H       0.07; 
 -----------------------------------------------------------------------------
@  2    -188.303520829        1.87799D-03   -4.20D-06    2
      Virial theorem: -V/T =      2.008191
@      MULPOP C       0.14; C      -0.08; C      -0.12; O      -0.20; H       0.05; H       0.07; H       0.07; H       0.07; 
 -----------------------------------------------------------------------------
@  3    -188.303521417        5.18060D-04   -5.89D-07    3
      Virial theorem: -V/T =      2.008191
@      MULPOP C       0.14; C      -0.08; C      -0.12; O      -0.20; H       0.05; H       0.07; H       0.07; H       0.07; 
 -----------------------------------------------------------------------------
@  4    -188.303521456        2.53341D-04   -3.90D-08    4
      Virial theorem: -V/T =      2.008191
@      MULPOP C       0.14; C      -0.08; C      -0.12; O      -0.20; H       0.05; H       0.07; H       0.07; H       0.07; 
 -----------------------------------------------------------------------------
@  5    -188.303521476        1.23192D-04   -1.96D-08    5
      Virial theorem: -V/T =      2.008191
@      MULPOP C       0.14; C      -0.08; C      -0.12; O      -0.20; H       0.05; H       0.07; H       0.07; H       0.07; 
 -----------------------------------------------------------------------------
@  6    -188.303521484        5.60516D-05   -8.68D-09    6
      Virial theorem: -V/T =      2.008191
[...]
 -----------------------------------------------------------------------------
@  2    -190.761605630        7.76525D-04   -6.56D-07    2
      Virial theorem: -V/T =      2.000218
@      MULPOP C       0.33; C      -0.24; C      -0.38; O      -0.50; H       0.15; H       0.22; H       0.20; H       0.21; 
 -----------------------------------------------------------------------------
@  3    -190.761605708        3.26737D-04   -7.82D-08    3
      Virial theorem: -V/T =      2.000220
@      MULPOP C       0.33; C      -0.24; C      -0.38; O      -0.50; H       0.15; H       0.22; H       0.20; H       0.21; 
 -----------------------------------------------------------------------------
@  4    -190.761605718        1.25227D-04   -9.84D-09    4
      Virial theorem: -V/T =      2.000219
@      MULPOP C       0.33; C      -0.24; C      -0.38; O      -0.50; H       0.15; H       0.22; H       0.20; H       0.21; 
 -----------------------------------------------------------------------------
@  5    -190.761605721        5.39028D-05   -2.93D-09    5
      Virial theorem: -V/T =      2.000219
@      MULPOP C       0.33; C      -0.24; C      -0.38; O      -0.50; H       0.15; H       0.22; H       0.20; H       0.21; 
 -----------------------------------------------------------------------------
@  6    -190.761605722        2.55192D-05   -8.98D-10    6
      Virial theorem: -V/T =      2.000219
@      MULPOP C       0.33; C      -0.24; C      -0.38; O      -0.50; H       0.15; H       0.22; H       0.20; H       0.21; 
 -----------------------------------------------------------------------------
@  7    -190.761605722        1.25180D-05   -2.58D-10    7
      Virial theorem: -V/T =      2.000219
@      MULPOP C       0.33; C      -0.24; C      -0.38; O      -0.50; H       0.15; H       0.22; H       0.20; H       0.21; 
 -----------------------------------------------------------------------------
@  8    -190.761605722        5.13988D-06   -6.55D-11    8

@ *** DIIS converged in   8 iterations !
@     Converged SCF energy, gradient:   -190.761605721883    5.14D-06
    - total time used in SIRFCK :              0.00 seconds


 *** SCF orbital energy analysis ***

 Only the 20 lowest virtual orbital energies printed in each symmetry.

 Number of electrons :   30
 Orbital occupations :   15

 Sym       Hartree-Fock orbital energies

1 A     -20.56155457   -11.32996475   -11.26030755   -11.24662535    -1.40383687
         -1.08642544    -0.88157278    -0.78725362    -0.67203392    -0.66717537
         -0.60584810    -0.55598091    -0.54589687    -0.42378499    -0.39737772
          0.09925762     0.24737222     0.25126848     0.26060597     0.30783499
          0.33770558     0.42618003     0.48845953     0.53867278     0.72101347
          0.72743553     0.75943247     0.80851979     0.83003609     0.88328731
          0.91054207     0.97716732     1.06344080     1.09844622     1.13964973

    E(LUMO) :     0.09925762 au (symmetry 1)
  - E(HOMO) :    -0.39737772 au (symmetry 1)
  ------------------------------------------
    gap     :     0.49663535 au

 >>> Writing SIRIFC interface file

 >>>> CPU and wall time for SCF :       0.217       0.203


                       .-----------------------------------.
                       | >>> Final results from SIRIUS <<< |
                       `-----------------------------------'


@    Spin multiplicity:           1
@    Spatial symmetry:            1 ( irrep  A   in C1  )
@    Total charge of molecule:    0

@    Final HF energy:            -190.761605721883                 
@    Nuclear repulsion:           103.950684533372
@    Electronic energy:          -294.712290255254

@    Final gradient norm:           0.000005139880

 
     Date and time (Linux)  : Sat Jun  6 17:39:41 2015
     Host name              : adm-106152.local                        



 >>>> Total CPU  time used in SIRIUS :      0.23 seconds
 >>>> Total wall time used in SIRIUS :      0.21 seconds

 
     Date and time (Linux)  : Sat Jun  6 17:39:41 2015
     Host name              : adm-106152.local                        


                     .---------------------------------------.
                     | End of Wave Function Section (SIRIUS) |
                     `---------------------------------------'

 Trust radius squarely increased due to very good ratio.
 Updated trust radius   0.01433

     Order of analytical energy-derivatives available:   2
     This will be the default.

 Center of mass dipole origin  :    0.980089   -1.403098    0.000406

 Center of mass gauge origin   :    0.980089   -1.403098    0.000406


                 .------------------------------------------------.
                 | Starting in Static Property Section (ABACUS) - |
                 `------------------------------------------------'


 
     Date and time (Linux)  : Sat Jun  6 17:39:41 2015
     Host name              : adm-106152.local                        

 Largest deviation from tra-rot symmetry is in gradient element  3:  2.13E-06


   ***************************************************************************
   ************************ FINAL RESULTS from ABACUS ************************
   ***************************************************************************


 
     Date and time (Linux)  : Sat Jun  6 17:39:43 2015
     Host name              : adm-106152.local                        


 CPU time statistics for ABACUS
 ------------------------------

 TWOTEX     00:00:02      89 %
 REST       00:00:01      54 %

 TOTAL      00:00:02     100 %


 >>>> Total CPU  time used in ABACUS:   2.20 seconds
 >>>> Total wall time used in ABACUS:   2.03 seconds


                   .-------------------------------------------.
                   | End of Static Property Section (ABACUS) - |
                   `-------------------------------------------'



           :::::::::::::::::::::::::::::::::::::::::::::::::::::::::::
           ::::::::::::::: Optimization Control Center :::::::::::::::
           :::::::::::::::::::::::::::::::::::::::::::::::::::::::::::



                               Final geometry (au)
                               -------------------

 C         -0.2967015828           -1.0165436467            0.0011291086
 C          2.3969537228           -1.7552409984           -0.0003464890
 C          3.0809382833           -4.1567924688           -0.0002537150
 O         -1.0112404716            1.1153273418            0.0009794605
 H         -1.6427178244           -2.5876754013            0.0024562060
 H          3.7499909076           -0.2390896290           -0.0012939279
 H          1.7037005293           -5.6546855795            0.0007713291
 H          5.0309387373           -4.7221691934           -0.0011818599





                             Optimization information
                             ------------------------

 Iteration number               :      23
 End of optimization            :       T 
 Energy at this geometry is     :    -190.761606
 Energy change from last geom.  :      -0.000001
 Predicted change               :      -0.000001
 Ratio, actual/predicted change :       1.034089
 Norm of gradient               :       0.000089
 Norm of step                   :       0.000695
 Updated trust radius           :       0.014325
 Total Hessian index            :       0



 Center of mass dipole origin  :    0.980089   -1.403098    0.000406

 Center of mass gauge origin   :    0.980089   -1.403098    0.000406


                 .------------------------------------------------.
                 | Starting in Static Property Section (ABACUS) - |
                 `------------------------------------------------'


 
     Date and time (Linux)  : Sat Jun  6 17:39:43 2015
     Host name              : adm-106152.local                        


   ***************************************************************************
   ************************ FINAL RESULTS from ABACUS ************************
   ***************************************************************************


 
     Date and time (Linux)  : Sat Jun  6 17:39:43 2015
     Host name              : adm-106152.local                        


                             Molecular geometry (au)
                             -----------------------

 C         -0.2967015828           -1.0165436467            0.0011291086
 C          2.3969537228           -1.7552409984           -0.0003464890
 C          3.0809382833           -4.1567924688           -0.0002537150
 O         -1.0112404716            1.1153273418            0.0009794605
 H         -1.6427178244           -2.5876754013            0.0024562060
 H          3.7499909076           -0.2390896290           -0.0012939279
 H          1.7037005293           -5.6546855795            0.0007713291
 H          5.0309387373           -4.7221691934           -0.0011818599





                        Molecular wave function and energy
                        ----------------------------------

     Spatial symmetry   1 ( A   )
     Spin multiplicity  1
     2 * M_S            0
     State number       1
     Total charge       0

     Total energy       -190.7616057219 au (Hartrees)
                         -5190.88734581 eV
                           -500844.5186 kJ/mol
                           -119704.7129 kcal/mol


                   Scalar Breit-Pauli relativistic corrections
                   -------------------------------------------

     Darwin correction:                          0.3733527275 au
     Mass-velocity correction:                  -0.4685085207 au

     Total relativistic correction:             -0.0951557932 au (0.0499%)
     Non-relativistic + relativistic energy:  -190.8567615151 au



      (Note that these corrections are NOT included in the results below.)


                                  Dipole moment
                                  -------------

                 au               Debye          C m (/(10**-30)
              1.380052           3.507742          11.700568


                             Dipole moment components
                             ------------------------

                 au               Debye          C m (/(10**-30)

      x      0.64125900         1.62991769         5.43682019
      y     -1.22201904        -3.10606238       -10.36070887
      z     -0.00003443        -0.00008751        -0.00029189


   Units:   1 a.u. =   2.54175 Debye 
            1 a.u. =   8.47835 (10**-30) C m (SI)




   Interatomic separations (in Angstrom):
   --------------------------------------

            C           C           C           O           H           H     
            ------      ------      ------      ------      ------      ------
 C     :    0.000000
 C     :    1.478049    0.000000
 C     :    2.440512    1.321385    0.000000
 O     :    1.189818    2.358015    3.531685    0.000000
 H     :    1.094798    2.182617    2.633956    1.987833    0.000000
 H     :    2.180580    1.075340    2.103173    2.619495    3.112587    0.000000
 H     :    2.672946    2.095854    1.076777    3.859875    2.402084    3.063565
 H     :    3.434169    2.099476    1.074393    4.445854    3.707783    2.467284

            H           H     
            ------      ------
 H     :    0.000000
 H     :    1.828543    0.000000


  Max    interatomic separation is    4.4459 Angstrom (    8.4014 Bohr)
  between atoms    8 and    4, "H     " and "O     ".

  Min HX interatomic separation is    1.0744 Angstrom (    2.0303 Bohr)

  Min YX interatomic separation is    1.1898 Angstrom (    2.2484 Bohr)


  Bond distances (Angstrom):
  --------------------------

                  atom 1     atom 2       distance
                  ------     ------       --------
  bond distance:  C          C            1.478049
  bond distance:  C          C            1.321385
  bond distance:  O          C            1.189818
  bond distance:  H          C            1.094798
  bond distance:  H          C            1.075340
  bond distance:  H          C            1.076777
  bond distance:  H          C            1.074393


  Bond angles (degrees):
  ----------------------

                  atom 1     atom 2     atom 3         angle
                  ------     ------     ------         -----
  bond angle:     C          C          O            123.865
  bond angle:     C          C          H            115.252
  bond angle:     O          C          H            120.883
  bond angle:     C          C          C            121.233
  bond angle:     C          C          H            116.411
  bond angle:     C          C          H            122.356
  bond angle:     C          C          H            121.506
  bond angle:     C          C          H            122.066
  bond angle:     H          C          H            116.428




 CPU time statistics for ABACUS
 ------------------------------




 >>>> Total CPU  time used in ABACUS:   0.12 seconds
 >>>> Total wall time used in ABACUS:   0.03 seconds


                   .-------------------------------------------.
                   | End of Static Property Section (ABACUS) - |
                   `-------------------------------------------'



          <<<<<<<<<<<<<<<<<<<<<<<<<<<<<<<<<<<<<<<<<<<<<<<<<<<<<<<<<<<<<<
          <<<<<<<<<<<<<<<<<<<<  End of Optimization <<<<<<<<<<<<<<<<<<<<
          <<<<<<<<<<<<<<<<<<<<<<<<<<<<<<<<<<<<<<<<<<<<<<<<<<<<<<<<<<<<<<



                              Final geometry (bohr)
                              ---------------------

 C         -0.2967015828           -1.0165436467            0.0011291086
 C          2.3969537228           -1.7552409984           -0.0003464890
 C          3.0809382833           -4.1567924688           -0.0002537150
 O         -1.0112404716            1.1153273418            0.0009794605
 H         -1.6427178244           -2.5876754013            0.0024562060
 H          3.7499909076           -0.2390896290           -0.0012939279
 H          1.7037005293           -5.6546855795            0.0007713291
 H          5.0309387373           -4.7221691934           -0.0011818599





                      Final geometry (xyz format; angstrom)
                      -------------------------------------

8

C       -0.1570077160           -0.5379317316            0.0005974985
C        1.2684132854           -0.9288335358           -0.0001833541
C        1.6303623274           -2.1996798445           -0.0001342602
O       -0.5351254122            0.5902058119            0.0005183082
H       -0.8692888364           -1.3693388513            0.0012997682
H        1.9844097290           -0.1265207830           -0.0006847172
H        0.9015594941           -2.9923307429            0.0004081698
H        2.6622581287           -2.4988643227           -0.0006254133



@ Iter     Energy        Change       GradNorm  Index   StepLen    TrustRad #Rej
@ ------------------------------------------------------------------------------
@   0     -188.299942     0.000000     0.092503    0    0.201778*   0.500000   0 
@   1     -188.303343    -0.003401     0.018650    0    0.063106*   0.500000   0 
@   2     -188.303516    -0.000172     0.003565    0    0.012876*   0.500000   1 
@   3     -188.303521    -0.000006     0.002115    0    0.012876    0.012876   0 
@   4     -188.303526    -0.000005     0.000870    0    0.004552*   0.012876   1 
@   5     -188.303526    -0.000000     0.000601    0    0.004552    0.004552   0 
@   6     -188.303527    -0.000000     0.000391    0    0.001883*   0.004552   0 
@   7     -188.303527    -0.000000     0.000060    0    0.001883    0.001883   0 
@   8     -190.758630    -2.455103     0.081500    0    0.001883    0.001883   0 
@   9     -190.758705    -0.000075     0.080056    0    0.002711    0.002711   0 
@  10     -190.758811    -0.000106     0.077976    0    0.003904    0.003904   0 
@  11     -190.758958    -0.000147     0.074991    0    0.005621    0.005621   0 
@  12     -190.759159    -0.000201     0.070710    0    0.008095    0.008095   0 
@  13     -190.759427    -0.000268     0.064606    0    0.011656    0.011656   0 
@  14     -190.759770    -0.000343     0.056020    0    0.016785    0.016785   0 
@  15     -190.760176    -0.000407     0.044418    0    0.024171    0.024171   0 
@  16     -190.760603    -0.000427     0.030655    0    0.034806    0.034806   0 
@  17     -190.760989    -0.000386     0.019057    0    0.050121    0.050121   0 
@  18     -190.761314    -0.000325     0.011132    0    0.072174    0.072174   0 
@  19     -190.761541    -0.000227     0.004075    0    0.063673*   0.103930   0 
@  20     -190.761601    -0.000059     0.001165    0    0.015584*   0.103930   0 
@  21     -190.761604    -0.000003     0.001011    0    0.014325*   0.103930   0 
@  22     -190.761605    -0.000001     0.000759    0    0.006269*   0.014325   0 
@  23     -190.761606    -0.000001     0.000089    0    0.000695*   0.014325   0 

@  *) Newton step taken.


   Interatomic separations (in Angstrom):
   --------------------------------------

            C           C           C           O           H           H     
            ------      ------      ------      ------      ------      ------
 C     :    0.000000
 C     :    1.478049    0.000000
 C     :    2.440512    1.321385    0.000000
 O     :    1.189818    2.358015    3.531685    0.000000
 H     :    1.094798    2.182617    2.633956    1.987833    0.000000
 H     :    2.180580    1.075340    2.103173    2.619495    3.112587    0.000000
 H     :    2.672946    2.095854    1.076777    3.859875    2.402084    3.063565
 H     :    3.434169    2.099476    1.074393    4.445854    3.707783    2.467284

            H           H     
            ------      ------
 H     :    0.000000
 H     :    1.828543    0.000000


  Max    interatomic separation is    4.4459 Angstrom (    8.4014 Bohr)
  between atoms    8 and    4, "H     " and "O     ".

  Min HX interatomic separation is    1.0744 Angstrom (    2.0303 Bohr)

  Min YX interatomic separation is    1.1898 Angstrom (    2.2484 Bohr)


  Bond distances (Angstrom):
  --------------------------

                  atom 1     atom 2       distance
                  ------     ------       --------
  bond distance:  C          C            1.478049
  bond distance:  C          C            1.321385
  bond distance:  O          C            1.189818
  bond distance:  H          C            1.094798
  bond distance:  H          C            1.075340
  bond distance:  H          C            1.076777
  bond distance:  H          C            1.074393


  Bond angles (degrees):
  ----------------------

                  atom 1     atom 2     atom 3         angle
                  ------     ------     ------         -----
  bond angle:     C          C          O            123.865
  bond angle:     C          C          H            115.252
  bond angle:     O          C          H            120.883
  bond angle:     C          C          C            121.233
  bond angle:     C          C          H            116.411
  bond angle:     C          C          H            122.356
  bond angle:     C          C          H            121.506
  bond angle:     C          C          H            122.066
  bond angle:     H          C          H            116.428



@ Geometry converged in 24 iterations!

@ Energy at final geometry is       :    -190.761606 a.u.
@ Energy change during optimization :      -2.461664 a.u.
@                                          -6463.097 kJ/mol

 Preoptimization was performed using the basis set(s):
     STO-3G                                                      

 >>>> Total CPU  time used in DALTON:  1 minute   5 seconds
 >>>> Total wall time used in DALTON:  50.14 seconds

 
     Date and time (Linux)  : Sat Jun  6 17:39:43 2015
     Host name              : adm-106152.local                        
