

     ************************************************************************
     *************** Dalton - An Electronic Structure Program ***************
     ************************************************************************

    This is output from DALTON 2014.0
   ----------------------------------------------------------------------------
    NOTE:
     
    Dalton is an experimental code for the evaluation of molecular
    properties using (MC)SCF, DFT, CI, and CC wave functions.
    The authors accept no responsibility for the performance of
    the code or for the correctness of the results.
     
    The code (in whole or part) is provided under a licence and
    is not to be reproduced for further distribution without
    the written permission of the authors or their representatives.
     
    See the home page "http://daltonprogram.org" for further information.
     
    If results obtained with this code are published,
    the appropriate citations would be both of:
     
       K. Aidas, C. Angeli, K. L. Bak, V. Bakken, R. Bast,
       L. Boman, O. Christiansen, R. Cimiraglia, S. Coriani,
       J. Cukras, P. Dahle, E. K. Dalskov, U. Ekstroem,
       T. Enevoldsen, J. J. Eriksen, P. Ettenhuber, B. Fernandez,
       L. Ferrighi, H. Fliegl, L. Frediani, K. Hald, A. Halkier,
       C. Haettig, H. Heiberg, T. Helgaker, A. C. Hennum,
       H. Hettema, E. Hjertenaes, S. Hoest, I.-M. Hoeyvik,
       M. F. Iozzi, B. Jansik, H. J. Aa. Jensen, D. Jonsson,
       P. Joergensen, M. Kaminski, J. Kauczor, S. Kirpekar,
       T. Kjaergaard, W. Klopper, S. Knecht, R. Kobayashi, H. Koch,
       J. Kongsted, A. Krapp, K. Kristensen, A. Ligabue,
       O. B. Lutnaes, J. I. Melo, K. V. Mikkelsen, R. H. Myhre,
       C. Neiss, C. B. Nielsen, P. Norman, J. Olsen,
       J. M. H. Olsen, A. Osted, M. J. Packer, F. Pawlowski,
       T. B. Pedersen, P. F. Provasi, S. Reine, Z. Rinkevicius,
       T. A. Ruden, K. Ruud, V. Rybkin, P. Salek, C. C. M. Samson,
       A. Sanchez de Meras, T. Saue, S. P. A. Sauer,
       B. Schimmelpfennig, K. Sneskov, A. H. Steindal,
       K. O. Sylvester-Hvid, P. R. Taylor, A. M. Teale,
       E. I. Tellgren, D. P. Tew, A. J. Thorvaldsen, L. Thoegersen,
       O. Vahtras, M. A. Watson, D. J. D. Wilson, M. Ziolkowski
       and H. Agren,
       "The Dalton quantum chemistry program system",
       WIREs Comput. Mol. Sci. 2013. (doi: 10.1002/wcms.1172)
    
    and
    
       Dalton, a Molecular Electronic Structure Program,
       Release DALTON2014.0 (2014), see http://daltonprogram.org
   ----------------------------------------------------------------------------

    Authors in alphabetical order (major contribution(s) in parenthesis):

  Kestutis Aidas,           Vilnius University,           Lithuania   (QM/MM)
  Celestino Angeli,         University of Ferrara,        Italy       (NEVPT2)
  Keld L. Bak,              UNI-C,                        Denmark     (AOSOPPA, non-adiabatic coupling, magnetic properties)
  Vebjoern Bakken,          University of Oslo,           Norway      (DALTON; geometry optimizer, symmetry detection)
  Radovan Bast,             KTH Stockholm,                Sweden      (DALTON installation and execution frameworks)
  Pablo Baudin,             University of Valencia,       Spain       (Cholesky excitation energies)
  Linus Boman,              NTNU,                         Norway      (Cholesky decomposition and subsystems)
  Ove Christiansen,         Aarhus University,            Denmark     (CC module)
  Renzo Cimiraglia,         University of Ferrara,        Italy       (NEVPT2)
  Sonia Coriani,            University of Trieste,        Italy       (CC module, MCD in RESPONS)
  Janusz Cukras,            University of Trieste,        Italy       (MChD in RESPONS)
  Paal Dahle,               University of Oslo,           Norway      (Parallelization)
  Erik K. Dalskov,          UNI-C,                        Denmark     (SOPPA)
  Thomas Enevoldsen,        Univ. of Southern Denmark,    Denmark     (SOPPA)
  Janus J. Eriksen,         Aarhus University,            Denmark     (Polarizable embedding model, TDA)
  Berta Fernandez,          U. of Santiago de Compostela, Spain       (doublet spin, ESR in RESPONS)
  Lara Ferrighi,            Aarhus University,            Denmark     (PCM Cubic response)
  Heike Fliegl,             University of Oslo,           Norway      (CCSD(R12))
  Luca Frediani,            UiT The Arctic U. of Norway,  Norway      (PCM)
  Bin Gao,                  UiT The Arctic U. of Norway,  Norway      (Gen1Int library)
  Christof Haettig,         Ruhr-University Bochum,       Germany     (CC module)
  Kasper Hald,              Aarhus University,            Denmark     (CC module)
  Asger Halkier,            Aarhus University,            Denmark     (CC module)
  Erik D. Hedegaard,        Univ. of Southern Denmark,    Denmark     (Polarizable embedding model, QM/MM)
  Hanne Heiberg,            University of Oslo,           Norway      (geometry analysis, selected one-electron integrals)
  Trygve Helgaker,          University of Oslo,           Norway      (DALTON; ABACUS, ERI, DFT modules, London, and much more)
  Alf Christian Hennum,     University of Oslo,           Norway      (Parity violation)
  Hinne Hettema,            University of Auckland,       New Zealand (quadratic response in RESPONS; SIRIUS supersymmetry)
  Eirik Hjertenaes,         NTNU,                         Norway      (Cholesky decomposition)
  Maria Francesca Iozzi,    University of Oslo,           Norway      (RPA)
  Brano Jansik              Technical Univ. of Ostrava    Czech Rep.  (DFT cubic response)
  Hans Joergen Aa. Jensen,  Univ. of Southern Denmark,    Denmark     (DALTON; SIRIUS, RESPONS, ABACUS modules, London, and much more)
  Dan Jonsson,              UiT The Arctic U. of Norway,  Norway      (cubic response in RESPONS module)
  Poul Joergensen,          Aarhus University,            Denmark     (RESPONS, ABACUS, and CC modules)
  Maciej Kaminski,          University of Warsaw,         Poland      (CPPh in RESPONS)
  Joanna Kauczor,           Linkoeping University,        Sweden      (Complex polarization propagator (CPP) module)
  Sheela Kirpekar,          Univ. of Southern Denmark,    Denmark     (Mass-velocity & Darwin integrals)
  Wim Klopper,              KIT Karlsruhe,                Germany     (R12 code in CC, SIRIUS, and ABACUS modules)
  Stefan Knecht,            ETH Zurich,                   Switzerland (Parallel CI and MCSCF)
  Rika Kobayashi,           Australian National Univ.,    Australia   (DIIS in CC, London in MCSCF)
  Henrik Koch,              NTNU,                         Norway      (CC module, Cholesky decomposition)
  Jacob Kongsted,           Univ. of Southern Denmark,    Denmark     (Polarizable embedding model, QM/MM)
  Andrea Ligabue,           University of Modena,         Italy       (CTOCD, AOSOPPA)
  Nanna H. List             Univ. of Southern Denmark,    Denmark     (Polarizable embedding model)
  Ola B. Lutnaes,           University of Oslo,           Norway      (DFT Hessian)
  Juan I. Melo,             University of Buenos Aires,   Argentina   (LRESC, Relativistic Effects on NMR Shieldings)
  Kurt V. Mikkelsen,        University of Copenhagen,     Denmark     (MC-SCRF and QM/MM)
  Rolf H. Myhre,            NTNU,                         Norway      (Cholesky, subsystems and ECC2)
  Christian Neiss,          Univ. Erlangen-Nuernberg,     Germany     (CCSD(R12))
  Christian B. Nielsen,     University of Copenhagen,     Denmark     (QM/MM)
  Patrick Norman,           Linkoeping University,        Sweden      (Cubic response and complex response in RESPONS)
  Jeppe Olsen,              Aarhus University,            Denmark     (SIRIUS CI/density modules)
  Jogvan Magnus H. Olsen,   Univ. of Southern Denmark,    Denmark     (Polarizable embedding model, QM/MM)
  Anders Osted,             Copenhagen University,        Denmark     (QM/MM)
  Martin J. Packer,         University of Sheffield,      UK          (SOPPA)
  Filip Pawlowski,          Kazimierz Wielki University,  Poland      (CC3)
  Morten N. Pedersen,       Univ. of Southern Denmark,    Denmark     (Polarizable embedding model)
  Thomas B. Pedersen,       University of Oslo,           Norway      (Cholesky decomposition)
  Patricio F. Provasi,      University of Northeastern,   Argentina   (Analysis of coupling constants in localized orbitals)
  Zilvinas Rinkevicius,     KTH Stockholm,                Sweden      (open-shell DFT, ESR)
  Elias Rudberg,            KTH Stockholm,                Sweden      (DFT grid and basis info)
  Torgeir A. Ruden,         University of Oslo,           Norway      (Numerical derivatives in ABACUS)
  Kenneth Ruud,             UiT The Arctic U. of Norway,  Norway      (DALTON; ABACUS magnetic properties and much more)
  Pawel Salek,              KTH Stockholm,                Sweden      (DALTON; DFT code)
  Claire C. M. Samson       University of Karlsruhe       Germany     (Boys localization, r12 integrals in ERI)
  Alfredo Sanchez de Meras, University of Valencia,       Spain       (CC module, Cholesky decomposition)
  Trond Saue,               Paul Sabatier University,     France      (direct Fock matrix construction)
  Stephan P. A. Sauer,      University of Copenhagen,     Denmark     (SOPPA(CCSD), SOPPA prop., AOSOPPA, vibrational g-factors)
  Bernd Schimmelpfennig,    Forschungszentrum Karlsruhe,  Germany     (AMFI module)
  Kristian Sneskov,         Aarhus University,            Denmark     (Polarizable embedding model, QM/MM)
  Arnfinn H. Steindal,      UiT The Arctic U. of Norway,  Norway      (parallel QM/MM, Polarizable embedding model)
  Casper Steinmann,         Univ. of Southern Denmark,    Denmark     (QFIT, Polarizable embedding model)
  K. O. Sylvester-Hvid,     University of Copenhagen,     Denmark     (MC-SCRF)
  Peter R. Taylor,          VLSCI/Univ. of Melbourne,     Australia   (Symmetry handling ABACUS, integral transformation)
  Andrew M. Teale,          University of Nottingham,     England     (DFT-AC, DFT-D)
  David P. Tew,             University of Bristol,        England     (CCSD(R12))
  Olav Vahtras,             KTH Stockholm,                Sweden      (triplet response, spin-orbit, ESR, TDDFT, open-shell DFT)
  David J. Wilson,          La Trobe University,          Australia   (DFT Hessian and DFT magnetizabilities)
  Hans Agren,               KTH Stockholm,                Sweden      (SIRIUS module, RESPONS, MC-SCRF solvation model)
 --------------------------------------------------------------------------------

     Date and time (Linux)  : Tue Oct 14 15:26:15 2014
     Host name              : spongebob                               

 * Work memory size             :    64000000 =  488.28 megabytes.

 * Directories for basis set searches:
   1) /home/roberto/Workspace/dalton/DALTON/test/pcm_excit
   2) /home/roberto/Workspace/dalton/build/basis


Compilation information
-----------------------

 Who compiled             | roberto
 Host                     | spongebob
 System                   | Linux-3.13.0-37-generic
 CMake generator          | Unix Makefiles
 Processor                | x86_64
 64-bit integers          | OFF
 MPI                      | OFF
 Fortran compiler         | /usr/bin/gfortran
 Fortran compiler version | GNU Fortran (Ubuntu 4.8.2-19ubuntu1) 4.8.2
 C compiler               | /usr/bin/gcc
 C compiler version       | gcc (Ubuntu 4.8.2-19ubuntu1) 4.8.2
 C++ compiler             | /usr/bin/g++
 C++ compiler version     | g++ (Ubuntu 4.8.2-19ubuntu1) 4.8.2
 BLAS                     | /usr/lib/atlas-base/libf77blas.so;/usr/lib/atlas-b
                          | ase/libcblas.so;/usr/lib/atlas-base/libatlas.so
 LAPACK                   | /usr/lib/atlas-base/libatlas.so;/usr/lib/atlas-bas
                          | e/atlas/liblapack.so
 Static linking           | OFF
 Last Git revision        | 0e8c20e5b1820f883090356a2a3cf05f844cfb02
 Git branch               | pcm_public
 Configuration time       | 2014-10-11 10:26:03.210432


   Content of the .dal input file
 ----------------------------------

**DALTON INPUT                                    
.RUN RESPONSE                                     
*PCM                                              
.SOLVNT                                           
WATER                                             
.NPCMMT                                           
0                                                 
.ICESPH                                           
3                                                 
*PCMCAV                                           
.AREATS                                           
0.3                                               
**WAVEFUNCTION                                    
.HF                                               
**RESPONSE                                        
*LINEAR                                           
.THCLR                                            
1.0D-4                                            
.DIPLEN                                           
.SINGLE RESIDUE                                   
.ROOTS                                            
3 3 3 3                                           
**END OF DALTON INPUT                             


   Content of the .mol file
 ----------------------------

ATOMBASIS                                                                      
                                                                               
                                                                               
Atomtypes=3 Charge=+2 Angstrom Generators=2 X Y                                
Charge=6.0 Atoms=1 Basis=STO-3G  Radius=1.6 Alpha=1.2                          
C     0.000000     0.000000     0.000000   1.60                                
Charge=8.0 Atoms=1 Basis=STO-3G  Radius=1.5 Alpha=1.2                          
O     0.000000     0.000000     1.220000                                       
Charge=1.0 Atoms=1 Basis=STO-3G  Radius=1.2 Alpha=1.2                          
H     0.943102     0.000000    -0.544500                                       
                                                                               


       *******************************************************************
       *********** Output from DALTON general input processing ***********
       *******************************************************************

 --------------------------------------------------------------------------------
   Overall default print level:    0
   Print level for DALTON.STAT:    1

    HERMIT 1- and 2-electron integral sections will be executed
    "Old" integral transformation used (limited to max 255 basis functions)
    Wave function sections will be executed (SIRIUS module)
    Dynamic molecular response properties section will be executed (RESPONSE module)
 --------------------------------------------------------------------------------

 ** LOOKING UP INTERNALLY STORED DATA FOR SOLVENT = WATER    **
 Optical and physical constants:
 EPS= 78.390; EPSINF=  1.776; RSOLV=  1.385 A; VMOL=  18.070 ML/MOL;
 TCE=2.57000D-04 1/K; STEN= 71.810 DYN/CM;  DSTEN=  0.6500; CMF=  1.2770


     -----------------------------------
     Input for PCM solvation calculation 
     -----------------------------------
     ICOMPCM =       0          SOLVNT=WATER        EPS   = 78.3900     EPSINF=  1.7760
     RSOLV =  1.3850

     ICESPH =       3     NESFP =       0
     OMEGA = 40.0000     RET   =  0.2000     FRO   =  0.7000

     IPRPCM=       0

     NON-EQ = F     NEQRSP =F
     POLYG          60

     INPUT FOR CAVITY DEFINITION 
     ---------------------------
     ATOM         COORDINATES           RADIUS 


   ****************************************************************************
   *************** Output of molecule and basis set information ***************
   ****************************************************************************


    The two title cards from your ".mol" input:
    ------------------------------------------------------------------------
 1:                                                                         
 2:                                                                         
    ------------------------------------------------------------------------

  Coordinates are entered in Angstrom and converted to atomic units.
          - Conversion factor : 1 bohr = 0.52917721 A

  Atomic type no.    1
  --------------------
  Nuclear charge:   6.00000
  Number of symmetry independent centers:    1
  Number of basis sets to read;    2
  The basis set is "STO-3G  Radius=1.6 Alpha=1.2" from the basis set library.
  Basis set file used for this atomic type with Z =   6 :
     "/home/roberto/Workspace/dalton/build/basis/STO-3G"

  Atomic type no.    2
  --------------------
  Nuclear charge:   8.00000
  Number of symmetry independent centers:    1
  Number of basis sets to read;    2
  The basis set is "STO-3G  Radius=1.5 Alpha=1.2" from the basis set library.
  Basis set file used for this atomic type with Z =   8 :
     "/home/roberto/Workspace/dalton/build/basis/STO-3G"

  Atomic type no.    3
  --------------------
  Nuclear charge:   1.00000
  Number of symmetry independent centers:    1
  Number of basis sets to read;    2
  The basis set is "STO-3G  Radius=1.2 Alpha=1.2" from the basis set library.
  Basis set file used for this atomic type with Z =   1 :
     "/home/roberto/Workspace/dalton/build/basis/STO-3G"


                         SYMGRP: Point group information
                         -------------------------------

@    Point group: C2v

@  * The irrep name for each symmetry:    1: A1     2: B1     3: B2     4: A2 

   * The point group was generated by:

      Reflection in the yz-plane
      Reflection in the xz-plane

   * Group multiplication table

        |  E   C2z  Oxz  Oyz
   -----+--------------------
     E  |  E   C2z  Oxz  Oyz
    C2z | C2z   E   Oyz  Oxz
    Oxz | Oxz  Oyz   E   C2z
    Oyz | Oyz  Oxz  C2z   E 

   * Character table

        |  E   C2z  Oxz  Oyz
   -----+--------------------
    A1  |   1    1    1    1
    B1  |   1   -1    1   -1
    B2  |   1   -1   -1    1
    A2  |   1    1   -1   -1

   * Direct product table

        | A1   B1   B2   A2 
   -----+--------------------
    A1  | A1   B1   B2   A2 
    B1  | B1   A1   A2   B2 
    B2  | B2   A2   A1   B1 
    A2  | A2   B2   B1   A1 

********SPHERES IN PCMSPHGEN************
 INDEX        X        Y         Z        R
   1    0.0000000000D+00    0.0000000000D+00    0.0000000000D+00    1.9200000000D+00
   2    0.0000000000D+00    0.0000000000D+00    2.3054658725D+00    1.8000000000D+00
   3    1.7822044879D+00    0.0000000000D+00   -1.0289558751D+00    1.4400000000D+00
   4   -1.7822044879D+00    0.0000000000D+00   -1.0289558751D+00    1.4400000000D+00


                                 Isotopic Masses
                                 ---------------

                           C          12.000000
                           O          15.994915
                           H   _1      1.007825
                           H   _2      1.007825

                       Total mass:    30.010565 amu
                       Natural abundance:  98.633 %

 Center-of-mass coordinates (a.u.):    0.000000    0.000000    1.159649


  Atoms and basis sets
  --------------------

  Number of atom types :    3
  Total number of atoms:    4

  label    atoms   charge   prim   cont     basis
  ----------------------------------------------------------------------
  C           1    6.0000    15     5      [6s3p|2s1p]                                        
  O           1    8.0000    15     5      [6s3p|2s1p]                                        
  H           2    1.0000     3     1      [3s|1s]                                            
  ----------------------------------------------------------------------
  total:      4   16.0000    36    12
  ----------------------------------------------------------------------

  Threshold for neglecting AO integrals:  1.00D-12


  Cartesian Coordinates (a.u.)
  ----------------------------

  Total number of coordinates:   12
  C       :     1  x   0.0000000000    2  y   0.0000000000    3  z   0.0000000000
  O       :     4  x   0.0000000000    5  y   0.0000000000    6  z   2.3054658725
  H   / 1 :     7  x   1.7822044879    8  y   0.0000000000    9  z  -1.0289558751
  H   / 2 :    10  x  -1.7822044879   11  y   0.0000000000   12  z  -1.0289558751


  Symmetry Coordinates
  --------------------

  Number of coordinates in each symmetry:     4    4    3    1

  Symmetry  A1  ( 1)

    1   C     z    3
    2   O     z    6
    3   H     x    [  7  -   10 ]/2
    4   H     z    [  9  +   12 ]/2

  Symmetry  B1  ( 2)

    5   C     x    1
    6   O     x    4
    7   H     x    [  7  +   10 ]/2
    8   H     z    [  9  -   12 ]/2

  Symmetry  B2  ( 3)

    9   C     y    2
   10   O     y    5
   11   H     y    [  8  +   11 ]/2

  Symmetry  A2  ( 4)

   12   H     y    [  8  -   11 ]/2


   Interatomic separations (in Angstrom):
   --------------------------------------

            C           O           H   _1      H   _2
            ------      ------      ------      ------
 C     :    0.000000
 O     :    1.220000    0.000000
 H   _1:    1.089000    2.000725    0.000000
 H   _2:    1.089000    2.000725    1.886204    0.000000


  Max    interatomic separation is    2.0007 Angstrom (    3.7808 Bohr)
  between atoms    3 and    2, "H   _1" and "O     ".

  Min HX interatomic separation is    1.0890 Angstrom (    2.0579 Bohr)

  Min YX interatomic separation is    1.2200 Angstrom (    2.3055 Bohr)


  Bond distances (Angstrom):
  --------------------------

                  atom 1     atom 2       distance
                  ------     ------       --------
  bond distance:  O          C            1.220000
  bond distance:  H   _1     C            1.089000
  bond distance:  H   _2     C            1.089000


  Bond angles (degrees):
  ----------------------

                  atom 1     atom 2     atom 3         angle
                  ------     ------     ------         -----
  bond angle:     O          C          H   _1       120.000
  bond angle:     O          C          H   _2       120.000
  bond angle:     H   _1     C          H   _2       120.000




 Principal moments of inertia (u*A**2) and principal axes
 --------------------------------------------------------

   IA       1.792803          0.000000    0.000000    1.000000
   IB      13.103106          1.000000    0.000000    0.000000
   IC      14.895908          0.000000    1.000000    0.000000


 Rotational constants
 --------------------

@    The molecule is planar.

               A                   B                   C

         281893.2926          38569.4058          33927.3708 MHz
            9.402948            1.286537            1.131695 cm-1


@  Nuclear repulsion energy :   31.163673729192 Hartree


  Symmetry Orbitals
  -----------------

  Number of orbitals in each symmetry:           7    3    2    0


  Symmetry  A1 ( 1)

    1     C        1s         1
    2     C        1s         2
    3     C        2pz        5
    4     O        1s         6
    5     O        1s         7
    6     O        2pz       10
    7     H        1s        11 +   12


  Symmetry  B1 ( 2)

    8     C        2px        3
    9     O        2px        8
   10     H        1s        11 -   12


  Symmetry  B2 ( 3)

   11     C        2py        4
   12     O        2py        9


  No orbitals in symmetry  A2 ( 4)

  Symmetries of electric field:  B1 (2)  B2 (3)  A1 (1)

  Symmetries of magnetic field:  B2 (3)  B1 (2)  A2 (4)


                     .---------------------------------------.
                     | Starting in Integral Section (HERMIT) |
                     `---------------------------------------'



 ***************************************************************************************
 ****************** Output from **INTEGRALS input processing (HERMIT) ******************
 ***************************************************************************************


 - Using defaults, no **INTEGRALS input found

 Default print level:        1

 * Nuclear model: Point charge

 Calculation of one- and two-electron Hamiltonian integrals.

 Center of mass  (bohr):      0.000000000000      0.000000000000      1.159648802225
 Operator center (bohr):      0.000000000000      0.000000000000      0.000000000000
 Gauge origin    (bohr):      0.000000000000      0.000000000000      0.000000000000
 Dipole origin   (bohr):      0.000000000000      0.000000000000      0.000000000000


     ************************************************************************
     ************************** Output from HERINT **************************
     ************************************************************************


 Threshold for neglecting two-electron integrals:  1.00D-12
 HERMIT - Number of two-electron integrals written:        1028 ( 33.4% )
 HERMIT - Megabytes written:                              0.014


 MEMORY USED TO GENERATE CAVITY =    432802

 in pcmtns, vmat is
   0.0000000000000000        0.0000000000000000        1.0000000000000000     
   0.0000000000000000        1.0000000000000000        0.0000000000000000     
   1.0000000000000000        0.0000000000000000        0.0000000000000000     
 Tessera cut in pieces and removed.

 Total number of spheres =    4
 Sphere             Center  (X,Y,Z) (A)               Radius (A)      Area (A^2)
   1    0.000000000    0.000000000    0.000000000    1.920000000   17.404313423
   2    0.000000000    0.000000000    1.220000000    1.800000000   25.187332839
   3    0.943102000    0.000000000   -0.544500000    1.440000000   11.255487319
   4   -0.943102000    0.000000000   -0.544500000    1.440000000   11.255487319

 Total number of tesserae =     268
 Surface area =   65.10262090 (A^2)    Cavity volume =   45.75393835 (A^3)

 Surface area =  232.48567836045507 (AU^2)    Cavity volume =  308.76286956027883 (AU^3)

          THE SOLUTE IS ENCLOSED IN ONE CAVITY

 ..... DONE GENERATION CAVITY .....

  ..... DONE GENERATING -Q-  MATRIX .....
 >>>> Total CPU  time used in HERMIT:   0.07 seconds
 >>>> Total wall time used in HERMIT:   0.07 seconds


                        .----------------------------------.
                        | End of Integral Section (HERMIT) |
                        `----------------------------------'



                   .--------------------------------------------.
                   | Starting in Wave Function Section (SIRIUS) |
                   `--------------------------------------------'


 *** Output from Huckel module :

     Using EWMO model:          F
     Using EHT  model:          T
     Number of Huckel orbitals each symmetry:    7    3    2    0

 Huckel EHT eigenvalues for symmetry :  1
          -20.704416     -11.377295      -1.495729      -0.964135      -0.593338
           -0.252244      -0.199950

 Huckel EHT eigenvalues for symmetry :  2
           -0.744095      -0.506268      -0.190531

 Huckel EHT eigenvalues for symmetry :  3
           -0.670977      -0.352123

 **********************************************************************
 *SIRIUS* a direct, restricted step, second order MCSCF program       *
 **********************************************************************

 
     Date and time (Linux)  : Tue Oct 14 15:26:15 2014
     Host name              : spongebob                               

 Title lines from ".mol" input file:
                                                                             
                                                                             

 Print level on unit LUPRI =   2 is   0
 Print level on unit LUW4  =   2 is   5

@    Restricted, closed shell Hartree-Fock calculation.

@    Time-dependent Hartree-Fock calculation (random phase approximation).

 Initial molecular orbitals are obtained according to
 ".MOSTART EHT   " input option

@    QM part is embedded in an environment :

@         Solvation model: PCM

     Wave function specification
     ============================
@    Wave function type        >>> HF <<<
@    Number of closed shell electrons          14
@    Number of electrons in active shells       0
@    Total charge of the molecule               2

@    Spin multiplicity and 2 M_S                1         0
@    Total number of symmetries                 4 (point group: C2v)
@    Reference state symmetry                   1 (irrep name : A1 )

     Orbital specifications
     ======================
     Abelian symmetry species          All |    1    2    3    4
                                           |  A1   B1   B2   A2 
                                       --- |  ---  ---  ---  ---
     Total number of orbitals           12 |    7    3    2    0
     Number of basis functions          12 |    7    3    2    0

      ** Automatic occupation of RHF orbitals **

      -- Initial occupation of symmetries is determined from extended Huckel guess.           
      -- Initial occupation of symmetries is :
@    Occupied SCF orbitals               7 |    5    1    1    0

     Maximum number of Fock   iterations      0
     Maximum number of DIIS   iterations     60
     Maximum number of QC-SCF iterations     60
     Threshold for SCF convergence     1.00D-05

          -------------------------------------
          ---- POLARISABLE CONTINUUM MODEL ----
          ----      UNIVERSITY OF PISA     ----
          -------------------------------------

 ESTIMATE OF NUCLEAR CHARGE       15.96782
 NUCLEAR APPARENT CHARGE -15.78910
 THEORETICAL -15.79589 NOT RENORMALIZED

 ..... DONE WITH INDUCED NUCLEAR CHARGES .....


 *********************************************
 ***** DIIS optimization of Hartree-Fock *****
 *********************************************

 C1-DIIS algorithm; max error vectors =    8

 Automatic occupation of symmetries with  14 electrons.

 Iter     Total energy      Solvation energy  Error norm  Delta(E)    SCF occupation
 -----------------------------------------------------------------------------
     (Precalculated two-electron integrals are transformed to P-supermatrix elements.
      Threshold for discarding integrals :  1.00D-12 )
@  1  -111.457640446     -0.492839822462       2.26D+00  -1.11D+02     5   1   1   0
      Virial theorem: -V/T =      2.031519
@      MULPOP C       1.21; O       0.46; H   _1  0.17; H   _2  0.17; 
 -----------------------------------------------------------------------------
@  2  -111.677094067     -0.477112910624       6.10D-01  -2.19D-01     5   1   1   0
      Virial theorem: -V/T =      2.035806
@      MULPOP C       0.18; O       0.82; H   _1  0.50; H   _2  0.50; 
 -----------------------------------------------------------------------------
@  3  -111.699858590     -0.486389172615       3.45D-01  -2.28D-02     5   1   1   0
      Virial theorem: -V/T =      2.030312
@      MULPOP C       0.57; O       0.38; H   _1  0.53; H   _2  0.53; 
 -----------------------------------------------------------------------------
@  4  -111.711749576     -0.481201636272       1.04D-01  -1.19D-02     5   1   1   0
      Virial theorem: -V/T =      2.031842
@      MULPOP C       0.39; O       0.55; H   _1  0.53; H   _2  0.53; 
 -----------------------------------------------------------------------------
@  5  -111.715894540     -0.481361635665       3.66D-02  -4.14D-03     5   1   1   0
      Virial theorem: -V/T =      2.031350
@      MULPOP C       0.42; O       0.55; H   _1  0.52; H   _2  0.52; 
 -----------------------------------------------------------------------------
@  6  -111.716482646     -0.481397364195       3.51D-03  -5.88D-04     5   1   1   0
      Virial theorem: -V/T =      2.031174
@      MULPOP C       0.43; O       0.55; H   _1  0.51; H   _2  0.51; 
 -----------------------------------------------------------------------------
@  7  -111.716485026     -0.481377383565       1.61D-03  -2.38D-06     5   1   1   0
      Virial theorem: -V/T =      2.031202
@      MULPOP C       0.42; O       0.55; H   _1  0.51; H   _2  0.51; 
 -----------------------------------------------------------------------------
@  8  -111.716485583     -0.481381553574       3.56D-04  -5.56D-07     5   1   1   0
      Virial theorem: -V/T =      2.031191
@      MULPOP C       0.42; O       0.55; H   _1  0.51; H   _2  0.51; 
 -----------------------------------------------------------------------------
@  9  -111.716485634     -0.481381397540       9.03D-06  -5.11D-08     5   1   1   0

@ *** DIIS converged in   9 iterations !
@     Converged SCF energy, gradient:   -111.716485633617    9.03D-06
    - total time used in SIRFCK :              0.00 seconds


 *** SCF orbital energy analysis ***
    (incl. solvent contribution)

 Only the five lowest virtual orbital energies printed in each symmetry.

 Number of electrons :   14
 Orbital occupations :    5    1    1    0

 Sym       Hartree-Fock orbital energies

1 A1    -21.08782474   -11.61411503    -1.81843430    -1.14185355    -0.97076083
          0.34806962     0.42545078

2 B1     -0.93988388    -0.29794439     0.44229614

3 B2     -0.94384623    -0.11091784

    E(LUMO) :    -0.29794439 au (symmetry 2)
  - E(HOMO) :    -0.93988388 au (symmetry 2)
  ------------------------------------------
    gap     :     0.64193949 au

 >>> Writing SIRIFC interface file

 >>>> CPU and wall time for SCF :       0.973       0.974


                       .-----------------------------------.
                       | >>> Final results from SIRIUS <<< |
                       `-----------------------------------'


@    Spin multiplicity:           1
@    Spatial symmetry:            1 ( irrep  A1  in C2v )
@    Total charge of molecule:    2

     SOLVATION MODEL: polarizable continuum model (PCM),
          dielectric constant =   78.390000

@    Final HF energy:            -111.716485633617                 
@    Nuclear repulsion:            31.163673729192
@    Electronic energy:          -142.398777965269

@    Final gradient norm:           0.000009029420

 
     Date and time (Linux)  : Tue Oct 14 15:26:16 2014
     Host name              : spongebob                               

 (Only coefficients >0.0100 are printed.)

 Molecular orbitals for symmetry species 1  (A1 )
 ------------------------------------------------

    Orbital         1        2        3        4        5        6        7
   1 C   :1s     0.0005   0.9929  -0.1088  -0.1926  -0.0715   0.2178  -0.0333
   2 C   :1s    -0.0068   0.0317   0.2142   0.6223   0.2853  -1.4190   0.1985
   3 C   :2pz   -0.0058   0.0020   0.1429  -0.0704  -0.4767  -0.0304   1.2459
   4 O   :1s     0.9947   0.0002  -0.2225   0.1222  -0.0533  -0.0591   0.0963
   5 O   :1s     0.0242  -0.0060   0.8000  -0.5676   0.2851   0.4237  -0.7504
   6 O   :2pz   -0.0054   0.0019  -0.2375  -0.4234   0.6099  -0.4830   0.7640
   7 H   :1s     0.0003  -0.0061   0.0182   0.1406   0.1779   0.8287   0.4265

 Molecular orbitals for symmetry species 2  (B1 )
 ------------------------------------------------

    Orbital         1        2        3
   1 C   :2px    0.6699  -0.1864   1.1030
   2 O   :2px    0.3562   0.9055  -0.3261
   3 H   :1s     0.2154  -0.3113  -0.8999

 Molecular orbitals for symmetry species 3  (B2 )
 ------------------------------------------------

    Orbital         1        2
   1 C   :2py    0.3050   0.9757
   2 O   :2py    0.8913  -0.5006



 >>>> Total CPU  time used in SIRIUS :      0.98 seconds
 >>>> Total wall time used in SIRIUS :      0.98 seconds

 
     Date and time (Linux)  : Tue Oct 14 15:26:16 2014
     Host name              : spongebob                               


                     .---------------------------------------.
                     | End of Wave Function Section (SIRIUS) |
                     `---------------------------------------'



                 .------------------------------------------------.
                 | Starting in Dynamic Property Section (RESPONS) |
                 `------------------------------------------------'


 ------------------------------------------------------------------------------
  RESPONSE  -  an MCSCF, MC-srDFT, DFT, and SOPPA response property program
 ------------------------------------------------------------------------------


 <<<<<<<<<< OUTPUT FROM RESPONSE INPUT PROCESSING >>>>>>>>>>




  Linear Response single residue calculation
 -------------------------------------------

 Equilibrium PCM solvent model requested        : SOLVNT =T

 Dielectric constant                            : EPSOL  = 78.3900

    4 input options by user.

 Print level                                    : IPRPP  =   2
 Maximum number of iterations for eigenval.eqs. : MAXITP =  60
 Threshold for convergence of eigenvalue eqs.   : THCPP  = 1.000D-03
 Maximum iterations in optimal orbital algorithm: MAXITO =   5

      3 Excitation energies are calculated for symmetry no.    1

      1 property residues are calculated with labels:

               ZDIPLEN 

      3 Excitation energies are calculated for symmetry no.    2

      1 property residues are calculated with labels:

               XDIPLEN 

      3 Excitation energies are calculated for symmetry no.    3

      1 property residues are calculated with labels:

               YDIPLEN 

      3 Excitation energies are calculated for symmetry no.    4

 Integral transformation: Total CPU and WALL times (sec)       0.001       0.001


   SCF energy         :     -111.716485633616500
 -- inactive part     :     -142.398777965269062
 -- nuclear repulsion :       31.163673729192165


                     ***************************************
                     *** RHF response calculation (TDHF) ***
                     ***************************************



 >>>>>>>>>> Linear response calculation
 >>>>>>>>>> Symmetry of excitation/property operator(s)    1  ( A1 )

 Number of excitations of this symmetry            3
 Number of response properties of this symmetry    0
 Number of C6/C8 properties of this symmetry       0


 Perturbation symmetry.     KSYMOP:       1
 Perturbation spin symmetry.TRPLET:       F
 Orbital variables.         KZWOPT:      13
 Configuration variables.   KZCONF:       0
 Total number of variables. KZVAR :      13



 <<< EXCITATION ENERGIES AND TRANSITION MOMENT CALCULATION (MCTDHF) >>>

 Operator symmetry = 1  ( A1 ); triplet =   F


 *** THE REQUESTED    3 SOLUTION VECTORS CONVERGED

 Convergence of RSP solution vectors, threshold = 1.00D-03
 ---------------------------------------------------------------
 (dimension of paired reduced space:   24)
 RSP solution vector no.    1; norm of residual   1.76D-05
 RSP solution vector no.    2; norm of residual   3.23D-06
 RSP solution vector no.    3; norm of residual   2.57D-05

 *** RSPCTL MICROITERATIONS CONVERGED

@ Transition operator type:    ZDIPLEN 
@ STATE NO:    1 *TRANSITION MOMENT: -0.69898028     *ENERGY(eV):   8.3380280    
@ STATE NO:    2 *TRANSITION MOMENT:  -1.0263568     *ENERGY(eV):   14.131624    
@ STATE NO:    3 *TRANSITION MOMENT:  -1.3884016     *ENERGY(eV):   25.555071    


 **************************************************************************************
 *** @ Excit. operator sym 1 & ref. state sym 1 => excited state symmetry 1  ( A1 ) ***
 **************************************************************************************



 @ Excited state no:    1 in symmetry 1  ( A1 )
 ----------------------------------------------

@ Excitation energy :  0.30641690     au
@                      8.3380280     eV;   67250.735     cm-1;   804.49744     kJ / mol

@ Total energy :      -111.41007     au

@ Operator type:    ZDIPLEN 
@ Oscillator strength (LENGTH)   :  9.98047712E-02  (Transition moment : -0.69898028     )


 @ Excited state no:    2 in symmetry 1  ( A1 )
 ----------------------------------------------

@ Excitation energy :  0.51932764     au
@                      14.131624     eV;   113979.24     cm-1;   1363.4945     kJ / mol

@ Total energy :      -111.19716     au

@ Operator type:    ZDIPLEN 
@ Oscillator strength (LENGTH)   :  0.36470933      (Transition moment :  -1.0263568     )


 @ Excited state no:    3 in symmetry 1  ( A1 )
 ----------------------------------------------

@ Excitation energy :  0.93913161     au
@                      25.555071     eV;   206115.56     cm-1;   2465.6897     kJ / mol

@ Total energy :      -110.77735     au

@ Operator type:    ZDIPLEN 
@ Oscillator strength (LENGTH)   :   1.2068837      (Transition moment :  -1.3884016     )


 Time used in polarization propagator calculation is      0.33 CPU seconds for symmetry 1


 >>>>>>>>>> Linear response calculation
 >>>>>>>>>> Symmetry of excitation/property operator(s)    2  ( B1 )

 Number of excitations of this symmetry            3
 Number of response properties of this symmetry    0
 Number of C6/C8 properties of this symmetry       0


 Perturbation symmetry.     KSYMOP:       2
 Perturbation spin symmetry.TRPLET:       F
 Orbital variables.         KZWOPT:      12
 Configuration variables.   KZCONF:       0
 Total number of variables. KZVAR :      12



 <<< EXCITATION ENERGIES AND TRANSITION MOMENT CALCULATION (MCTDHF) >>>

 Operator symmetry = 2  ( B1 ); triplet =   F


 *** THE REQUESTED    3 SOLUTION VECTORS CONVERGED

 Convergence of RSP solution vectors, threshold = 1.00D-03
 ---------------------------------------------------------------
 (dimension of paired reduced space:   22)
 RSP solution vector no.    1; norm of residual   2.14D-06
 RSP solution vector no.    2; norm of residual   1.04D-04
 RSP solution vector no.    3; norm of residual   7.56D-05

 *** RSPCTL MICROITERATIONS CONVERGED

@ Transition operator type:    XDIPLEN 
@ STATE NO:    1 *TRANSITION MOMENT:  3.95313857E-02 *ENERGY(eV):   4.4417660    
@ STATE NO:    2 *TRANSITION MOMENT: -0.92568155     *ENERGY(eV):   13.538900    
@ STATE NO:    3 *TRANSITION MOMENT: -0.18004970     *ENERGY(eV):   23.387831    


 **************************************************************************************
 *** @ Excit. operator sym 2 & ref. state sym 1 => excited state symmetry 2  ( B1 ) ***
 **************************************************************************************



 @ Excited state no:    1 in symmetry 2  ( B1 )
 ----------------------------------------------

@ Excitation energy :  0.16323190     au
@                      4.4417660     eV;   35825.261     cm-1;   428.56529     kJ / mol

@ Total energy :      -111.55325     au

@ Operator type:    XDIPLEN 
@ Oscillator strength (LENGTH)   :  1.70058308E-04  (Transition moment :  3.95313857E-02 )


 @ Excited state no:    2 in symmetry 2  ( B1 )
 ----------------------------------------------

@ Excitation energy :  0.49754545     au
@                      13.538900     eV;   109198.60     cm-1;   1306.3054     kJ / mol

@ Total energy :      -111.21894     au

@ Operator type:    XDIPLEN 
@ Oscillator strength (LENGTH)   :  0.28422659      (Transition moment : -0.92568155     )


 @ Excited state no:    3 in symmetry 2  ( B1 )
 ----------------------------------------------

@ Excitation energy :  0.85948699     au
@                      23.387831     eV;   188635.59     cm-1;   2256.5827     kJ / mol

@ Total energy :      -110.85700     au

@ Operator type:    XDIPLEN 
@ Oscillator strength (LENGTH)   :  1.85751732E-02  (Transition moment : -0.18004970     )


 Time used in polarization propagator calculation is      0.27 CPU seconds for symmetry 2


 >>>>>>>>>> Linear response calculation
 >>>>>>>>>> Symmetry of excitation/property operator(s)    3  ( B2 )

 Number of excitations of this symmetry            3
 Number of response properties of this symmetry    0
 Number of C6/C8 properties of this symmetry       0


 Perturbation symmetry.     KSYMOP:       3
 Perturbation spin symmetry.TRPLET:       F
 Orbital variables.         KZWOPT:       7
 Configuration variables.   KZCONF:       0
 Total number of variables. KZVAR :       7



 <<< EXCITATION ENERGIES AND TRANSITION MOMENT CALCULATION (MCTDHF) >>>

 Operator symmetry = 3  ( B2 ); triplet =   F

RSPORT:    2 out of    3 new trial vectors linear dependent

 *** THE REQUESTED    3 SOLUTION VECTORS CONVERGED

 Convergence of RSP solution vectors, threshold = 1.00D-03
 ---------------------------------------------------------------
 (dimension of paired reduced space:   14)
 RSP solution vector no.    1; norm of residual   4.44D-07
 RSP solution vector no.    2; norm of residual   4.82D-07
 RSP solution vector no.    3; norm of residual   1.11D-07

 *** RSPCTL MICROITERATIONS CONVERGED

@ Transition operator type:    YDIPLEN 
@ STATE NO:    1 *TRANSITION MOMENT: -0.27553661     *ENERGY(eV):   11.490144    
@ STATE NO:    2 *TRANSITION MOMENT:  0.89229909     *ENERGY(eV):   17.982209    
@ STATE NO:    3 *TRANSITION MOMENT:  0.17704500     *ENERGY(eV):   21.730483    


 **************************************************************************************
 *** @ Excit. operator sym 3 & ref. state sym 1 => excited state symmetry 3  ( B2 ) ***
 **************************************************************************************



 @ Excited state no:    1 in symmetry 3  ( B2 )
 ----------------------------------------------

@ Excitation energy :  0.42225503     au
@                      11.490144     eV;   92674.267     cm-1;   1108.6304     kJ / mol

@ Total energy :      -111.29423     au

@ Operator type:    YDIPLEN 
@ Oscillator strength (LENGTH)   :  2.13718533E-02  (Transition moment : -0.27553661     )


 @ Excited state no:    2 in symmetry 3  ( B2 )
 ----------------------------------------------

@ Excitation energy :  0.66083404     au
@                      17.982209     eV;   145036.31     cm-1;   1735.0195     kJ / mol

@ Total energy :      -111.05565     au

@ Operator type:    YDIPLEN 
@ Oscillator strength (LENGTH)   :  0.35076968      (Transition moment :  0.89229909     )


 @ Excited state no:    3 in symmetry 3  ( B2 )
 ----------------------------------------------

@ Excitation energy :  0.79858056     au
@                      21.730483     eV;   175268.17     cm-1;   2096.6729     kJ / mol

@ Total energy :      -110.91791     au

@ Operator type:    YDIPLEN 
@ Oscillator strength (LENGTH)   :  1.66876361E-02  (Transition moment :  0.17704500     )


 Time used in polarization propagator calculation is      0.20 CPU seconds for symmetry 3


 >>>>>>>>>> Linear response calculation
 >>>>>>>>>> Symmetry of excitation/property operator(s)    4  ( A2 )

 Number of excitations of this symmetry            3
 Number of response properties of this symmetry    0
 Number of C6/C8 properties of this symmetry       0


 Perturbation symmetry.     KSYMOP:       4
 Perturbation spin symmetry.TRPLET:       F
 Orbital variables.         KZWOPT:       3
 Configuration variables.   KZCONF:       0
 Total number of variables. KZVAR :       3



 <<< EXCITATION ENERGIES AND TRANSITION MOMENT CALCULATION (MCTDHF) >>>

 Operator symmetry = 4  ( A2 ); triplet =   F


 *** THE REQUESTED    3 SOLUTION VECTORS CONVERGED

 Convergence of RSP solution vectors, threshold = 1.00D-03
 ---------------------------------------------------------------
 (dimension of paired reduced space:    6)
 RSP solution vector no.    1; norm of residual   2.85D-08
 RSP solution vector no.    2; norm of residual   2.69D-08
 RSP solution vector no.    3; norm of residual   5.15D-09

 *** RSPCTL MICROITERATIONS CONVERGED


 **************************************************************************************
 *** @ Excit. operator sym 4 & ref. state sym 1 => excited state symmetry 4  ( A2 ) ***
 **************************************************************************************



 @ Excited state no:    1 in symmetry 4  ( A2 )
 ----------------------------------------------

@ Excitation energy :  5.09877259E-02 au
@                      1.3874466     eV;   11190.512     cm-1;   133.86825     kJ / mol

@ Total energy :      -111.66550     au


 @ Excited state no:    2 in symmetry 4  ( A2 )
 ----------------------------------------------

@ Excitation energy :  0.35472155     au
@                      9.6524644     eV;   77852.381     cm-1;   931.32129     kJ / mol

@ Total energy :      -111.36176     au


 @ Excited state no:    3 in symmetry 4  ( A2 )
 ----------------------------------------------

@ Excitation energy :   1.0425294     au
@                      28.368667     eV;   228808.74     cm-1;   2737.1604     kJ / mol

@ Total energy :      -110.67396     au


 Time used in polarization propagator calculation is      0.07 CPU seconds for symmetry 4

 >>>> Total CPU  time used in RESPONSE:   0.87 seconds
 >>>> Total wall time used in RESPONSE:   0.87 seconds


                   .-------------------------------------------.
                   | End of Dynamic Property Section (RESPONS) |
                   `-------------------------------------------'

 >>>> Total CPU  time used in DALTON:   1.93 seconds
 >>>> Total wall time used in DALTON:   1.93 seconds

 
     Date and time (Linux)  : Tue Oct 14 15:26:17 2014
     Host name              : spongebob                               
