

     ************************************************************************
     *************** Dalton - An Electronic Structure Program ***************
     ************************************************************************

    This is output from DALTON release Dalton2017.alpha (2016)
         ( Web site: http://daltonprogram.org )

   ----------------------------------------------------------------------------

    NOTE:
     
    Dalton is an experimental code for the evaluation of molecular
    properties using (MC)SCF, DFT, CI, and CC wave functions.
    The authors accept no responsibility for the performance of
    the code or for the correctness of the results.
     
    The code (in whole or part) is provided under a licence and
    is not to be reproduced for further distribution without
    the written permission of the authors or their representatives.
     
    See the home page "http://daltonprogram.org" for further information.
     
    If results obtained with this code are published,
    the appropriate citations would be both of:
     
       K. Aidas, C. Angeli, K. L. Bak, V. Bakken, R. Bast,
       L. Boman, O. Christiansen, R. Cimiraglia, S. Coriani,
       P. Dahle, E. K. Dalskov, U. Ekstroem,
       T. Enevoldsen, J. J. Eriksen, P. Ettenhuber, B. Fernandez,
       L. Ferrighi, H. Fliegl, L. Frediani, K. Hald, A. Halkier,
       C. Haettig, H. Heiberg, T. Helgaker, A. C. Hennum,
       H. Hettema, E. Hjertenaes, S. Hoest, I.-M. Hoeyvik,
       M. F. Iozzi, B. Jansik, H. J. Aa. Jensen, D. Jonsson,
       P. Joergensen, J. Kauczor, S. Kirpekar,
       T. Kjaergaard, W. Klopper, S. Knecht, R. Kobayashi, H. Koch,
       J. Kongsted, A. Krapp, K. Kristensen, A. Ligabue,
       O. B. Lutnaes, J. I. Melo, K. V. Mikkelsen, R. H. Myhre,
       C. Neiss, C. B. Nielsen, P. Norman, J. Olsen,
       J. M. H. Olsen, A. Osted, M. J. Packer, F. Pawlowski,
       T. B. Pedersen, P. F. Provasi, S. Reine, Z. Rinkevicius,
       T. A. Ruden, K. Ruud, V. Rybkin, P. Salek, C. C. M. Samson,
       A. Sanchez de Meras, T. Saue, S. P. A. Sauer,
       B. Schimmelpfennig, K. Sneskov, A. H. Steindal,
       K. O. Sylvester-Hvid, P. R. Taylor, A. M. Teale,
       E. I. Tellgren, D. P. Tew, A. J. Thorvaldsen, L. Thoegersen,
       O. Vahtras, M. A. Watson, D. J. D. Wilson, M. Ziolkowski
       and H. Agren,
       "The Dalton quantum chemistry program system",
       WIREs Comput. Mol. Sci. 2014, 4:269–284 (doi: 10.1002/wcms.1172)
     
    and
     
       Dalton, a Molecular Electronic Structure Program,
       Release Dalton2017.alpha (2016), see http://daltonprogram.org
   ----------------------------------------------------------------------------

    Authors in alphabetical order (major contribution(s) in parenthesis):

  Kestutis Aidas,           Vilnius University,           Lithuania   (QM/MM)
  Celestino Angeli,         University of Ferrara,        Italy       (NEVPT2)
  Keld L. Bak,              UNI-C,                        Denmark     (AOSOPPA, non-adiabatic coupling, magnetic properties)
  Vebjoern Bakken,          University of Oslo,           Norway      (DALTON; geometry optimizer, symmetry detection)
  Radovan Bast,             UiT The Arctic U. of Norway,  Norway      (DALTON installation and execution frameworks)
  Pablo Baudin,             University of Valencia,       Spain       (Cholesky excitation energies)
  Linus Boman,              NTNU,                         Norway      (Cholesky decomposition and subsystems)
  Ove Christiansen,         Aarhus University,            Denmark     (CC module)
  Renzo Cimiraglia,         University of Ferrara,        Italy       (NEVPT2)
  Sonia Coriani,            University of Trieste,        Italy       (CC module, MCD in RESPONS)
  Janusz Cukras,            University of Trieste,        Italy       (MChD in RESPONS)
  Paal Dahle,               University of Oslo,           Norway      (Parallelization)
  Erik K. Dalskov,          UNI-C,                        Denmark     (SOPPA)
  Thomas Enevoldsen,        Univ. of Southern Denmark,    Denmark     (SOPPA)
  Janus J. Eriksen,         Aarhus University,            Denmark     (Polarizable embedding model, TDA)
  Rasmus Faber,             University of Copenhagen,     Denmark     (Vib.avg. NMR with SOPPA, parallel AO-SOPPA)
  Berta Fernandez,          U. of Santiago de Compostela, Spain       (doublet spin, ESR in RESPONS)
  Lara Ferrighi,            Aarhus University,            Denmark     (PCM Cubic response)
  Heike Fliegl,             University of Oslo,           Norway      (CCSD(R12))
  Luca Frediani,            UiT The Arctic U. of Norway,  Norway      (PCM)
  Bin Gao,                  UiT The Arctic U. of Norway,  Norway      (Gen1Int library)
  Christof Haettig,         Ruhr-University Bochum,       Germany     (CC module)
  Kasper Hald,              Aarhus University,            Denmark     (CC module)
  Asger Halkier,            Aarhus University,            Denmark     (CC module)
  Frederik Beyer Hansen,    University of Copenhagen,     Denmark     (Parallel AO-SOPPA)
  Erik D. Hedegaard,        Univ. of Southern Denmark,    Denmark     (Polarizable embedding model, QM/MM)
  Hanne Heiberg,            University of Oslo,           Norway      (geometry analysis, selected one-electron integrals)
  Trygve Helgaker,          University of Oslo,           Norway      (DALTON; ABACUS, ERI, DFT modules, London, and much more)
  Alf Christian Hennum,     University of Oslo,           Norway      (Parity violation)
  Hinne Hettema,            University of Auckland,       New Zealand (quadratic response in RESPONS; SIRIUS supersymmetry)
  Eirik Hjertenaes,         NTNU,                         Norway      (Cholesky decomposition)
  Pi A. B. Haase,           University of Copenhagen,     Denmark     (Triplet AO-SOPPA)
  Maria Francesca Iozzi,    University of Oslo,           Norway      (RPA)
  Brano Jansik              Technical Univ. of Ostrava    Czech Rep.  (DFT cubic response)
  Hans Joergen Aa. Jensen,  Univ. of Southern Denmark,    Denmark     (DALTON; SIRIUS, RESPONS, ABACUS modules, London, and much more)
  Dan Jonsson,              UiT The Arctic U. of Norway,  Norway      (cubic response in RESPONS module)
  Poul Joergensen,          Aarhus University,            Denmark     (RESPONS, ABACUS, and CC modules)
  Maciej Kaminski,          University of Warsaw,         Poland      (CPPh in RESPONS)
  Joanna Kauczor,           Linkoeping University,        Sweden      (Complex polarization propagator (CPP) module)
  Sheela Kirpekar,          Univ. of Southern Denmark,    Denmark     (Mass-velocity & Darwin integrals)
  Wim Klopper,              KIT Karlsruhe,                Germany     (R12 code in CC, SIRIUS, and ABACUS modules)
  Stefan Knecht,            ETH Zurich,                   Switzerland (Parallel CI and MCSCF)
  Rika Kobayashi,           Australian National Univ.,    Australia   (DIIS in CC, London in MCSCF)
  Henrik Koch,              NTNU,                         Norway      (CC module, Cholesky decomposition)
  Jacob Kongsted,           Univ. of Southern Denmark,    Denmark     (Polarizable embedding model, QM/MM)
  Andrea Ligabue,           University of Modena,         Italy       (CTOCD, AOSOPPA)
  Nanna H. List             Univ. of Southern Denmark,    Denmark     (Polarizable embedding model)
  Ola B. Lutnaes,           University of Oslo,           Norway      (DFT Hessian)
  Juan I. Melo,             University of Buenos Aires,   Argentina   (LRESC, Relativistic Effects on NMR Shieldings)
  Kurt V. Mikkelsen,        University of Copenhagen,     Denmark     (MC-SCRF and QM/MM)
  Rolf H. Myhre,            NTNU,                         Norway      (Cholesky, subsystems and ECC2)
  Christian Neiss,          Univ. Erlangen-Nuernberg,     Germany     (CCSD(R12))
  Christian B. Nielsen,     University of Copenhagen,     Denmark     (QM/MM)
  Patrick Norman,           Linkoeping University,        Sweden      (Cubic response and complex frequency response in RESPONS)
  Jeppe Olsen,              Aarhus University,            Denmark     (SIRIUS CI/density modules)
  Jogvan Magnus H. Olsen,   Univ. of Southern Denmark,    Denmark     (Polarizable embedding model, QM/MM)
  Anders Osted,             Copenhagen University,        Denmark     (QM/MM)
  Martin J. Packer,         University of Sheffield,      UK          (SOPPA)
  Filip Pawlowski,          Kazimierz Wielki University,  Poland      (CC3)
  Morten N. Pedersen,       Univ. of Southern Denmark,    Denmark     (Polarizable embedding model)
  Thomas B. Pedersen,       University of Oslo,           Norway      (Cholesky decomposition)
  Patricio F. Provasi,      University of Northeastern,   Argentina   (Analysis of coupling constants in localized orbitals)
  Zilvinas Rinkevicius,     KTH Stockholm,                Sweden      (open-shell DFT, ESR)
  Elias Rudberg,            KTH Stockholm,                Sweden      (DFT grid and basis info)
  Torgeir A. Ruden,         University of Oslo,           Norway      (Numerical derivatives in ABACUS)
  Kenneth Ruud,             UiT The Arctic U. of Norway,  Norway      (DALTON; ABACUS magnetic properties and much more)
  Pawel Salek,              KTH Stockholm,                Sweden      (DALTON; DFT code)
  Claire C. M. Samson       University of Karlsruhe       Germany     (Boys localization, r12 integrals in ERI)
  Alfredo Sanchez de Meras, University of Valencia,       Spain       (CC module, Cholesky decomposition)
  Trond Saue,               Paul Sabatier University,     France      (direct Fock matrix construction)
  Stephan P. A. Sauer,      University of Copenhagen,     Denmark     (SOPPA(CCSD), SOPPA prop., AOSOPPA, vibrational g-factors)
  Bernd Schimmelpfennig,    Forschungszentrum Karlsruhe,  Germany     (AMFI module)
  Kristian Sneskov,         Aarhus University,            Denmark     (Polarizable embedding model, QM/MM)
  Arnfinn H. Steindal,      UiT The Arctic U. of Norway,  Norway      (parallel QM/MM, Polarizable embedding model)
  Casper Steinmann,         Univ. of Southern Denmark,    Denmark     (QFIT, Polarizable embedding model)
  K. O. Sylvester-Hvid,     University of Copenhagen,     Denmark     (MC-SCRF)
  Peter R. Taylor,          VLSCI/Univ. of Melbourne,     Australia   (Symmetry handling ABACUS, integral transformation)
  Andrew M. Teale,          University of Nottingham,     England     (DFT-AC, DFT-D)
  David P. Tew,             University of Bristol,        England     (CCSD(R12))
  Olav Vahtras,             KTH Stockholm,                Sweden      (triplet response, spin-orbit, ESR, TDDFT, open-shell DFT)
  David J. Wilson,          La Trobe University,          Australia   (DFT Hessian and DFT magnetizabilities)
  Hans Agren,               KTH Stockholm,                Sweden      (SIRIUS module, RESPONS, MC-SCRF solvation model)
 --------------------------------------------------------------------------------

     Date and time (Linux)  : Thu Nov  9 16:56:27 2017
     Host name              : kemi-czc7084xz.win.dtu.dk               

 * Work memory size             :    64000000 =  488.28 megabytes.

 * Directories for basis set searches:
   1) /home/WIN/rfaber/results/xopa_test
   2) /home/WIN/rfaber/source/dalton/build-mlcc/basis


Compilation information
-----------------------

 Who compiled             | rfaber
 Host                     | kemi-czc7084xz.win.dtu.dk
 System                   | Linux-3.10.0-514.16.1.el7.x86_64
 CMake generator          | Unix Makefiles
 Processor                | x86_64
 64-bit integers          | OFF
 MPI                      | OFF
 Fortran compiler         | /usr/bin/gfortran
 Fortran compiler version | GNU Fortran (GCC) 4.8.5 20150623 (Red Hat 4.8.5-11
                          | )
 C compiler               | /usr/bin/gcc
 C compiler version       | gcc (GCC) 4.8.5 20150623 (Red Hat 4.8.5-11)
 C++ compiler             | /usr/bin/g++
 C++ compiler version     | g++ (GCC) 4.8.5 20150623 (Red Hat 4.8.5-11)
 BLAS                     | /lib64/libopenblas.so
 Static linking           | OFF
 Last Git revision        | bb4d1599ca5680a9f3980451fc8bbefdba436d59
 Git branch               | mlcc
 Configuration time       | 2017-07-03 14:25:55.129430


   Content of the .dal input file
 ----------------------------------

**DALTON INPUT
.RUN WAVE FUNCTIONS
**WAVE FUNCTIONS
.CC
*SCF INPUT
.THRESH
 1.0D-11
*CC INPUT
.CCSD
.THRENR
 1.0d-11
.THRLEQ
 1.0D-11
.PRINT
  5
.MAXRED
 300
.MAX ITE
 200
*CCEXCI
.NCCEXCI
 8
.THREXC
 1.0D-11
*CCOPA
.DIPLEN
*CCXOPA
.DIPLEN
.EOMXTMO
**END OF DALTON INPUT


   Content of the .mol file
 ----------------------------

BASIS
cc-pVDZ
Water
Empty line
Atomtypes=2 Generators=0
        8.    1
O    0.0000000000  0.0000000000 -0.1239093563
      1.00    2
H    0.0000000000  1.4299372840 0.9832657567
H    0.0000000000 -1.4299372840 0.9832657567


       *******************************************************************
       *********** Output from DALTON general input processing ***********
       *******************************************************************

 --------------------------------------------------------------------------------
   Overall default print level:    0
   Print level for DALTON.STAT:    1

    HERMIT 1- and 2-electron integral sections will be executed
    "Old" integral transformation used (limited to max 255 basis functions)
    Wave function sections will be executed (SIRIUS module)
 --------------------------------------------------------------------------------


   ****************************************************************************
   *************** Output of molecule and basis set information ***************
   ****************************************************************************


    The two title cards from your ".mol" input:
    ------------------------------------------------------------------------
 1: Water                                                                   
 2: Empty line                                                              
    ------------------------------------------------------------------------

  Atomic type no.    1
  --------------------
  Nuclear charge:   8.00000
  Number of symmetry independent centers:    1
  Number of basis sets to read;    2
  Basis set file used for this atomic type with Z =   8 :
     "/home/WIN/rfaber/source/dalton/build-mlcc/basis/cc-pVDZ"

  Atomic type no.    2
  --------------------
  Nuclear charge:   1.00000
  Number of symmetry independent centers:    2
  Number of basis sets to read;    2
  Basis set file used for this atomic type with Z =   1 :
     "/home/WIN/rfaber/source/dalton/build-mlcc/basis/cc-pVDZ"


                         SYMGRP: Point group information
                         -------------------------------

@    Point group: C1 


                                 Isotopic Masses
                                 ---------------

                           O          15.994915
                           H           1.007825
                           H           1.007825

                       Total mass:    18.010565 amu
                       Natural abundance:  99.730 %

 Center-of-mass coordinates (a.u.):    0.000000    0.000000    0.000000


  Atoms and basis sets
  --------------------

  Number of atom types :    2
  Total number of atoms:    3

  Basis set used is "cc-pVDZ" from the basis set library.

  label    atoms   charge   prim   cont     basis
  ----------------------------------------------------------------------
  O           1    8.0000    26    14      [9s4p1d|3s2p1d]                                    
  H           2    1.0000     7     5      [4s1p|2s1p]                                        
  ----------------------------------------------------------------------
  total:      3   10.0000    40    24
  ----------------------------------------------------------------------
  Spherical harmonic basis used.

  Threshold for neglecting AO integrals:  1.00D-12


  Cartesian Coordinates (a.u.)
  ----------------------------

  Total number of coordinates:    9
  O       :     1  x   0.0000000000    2  y   0.0000000000    3  z  -0.1239093563
  H       :     4  x   0.0000000000    5  y   1.4299372840    6  z   0.9832657567
  H       :     7  x   0.0000000000    8  y  -1.4299372840    9  z   0.9832657567


   Interatomic separations (in Angstrom):
   --------------------------------------

            O           H           H     
            ------      ------      ------
 O     :    0.000000
 H     :    0.957000    0.000000
 H     :    0.957000    1.513380    0.000000


  Max    interatomic separation is    1.5134 Angstrom (    2.8599 Bohr)
  between atoms    3 and    2, "H     " and "H     ".

  Min HX interatomic separation is    0.9570 Angstrom (    1.8085 Bohr)


  Bond distances (Angstrom):
  --------------------------

                  atom 1     atom 2       distance
                  ------     ------       --------
  bond distance:  H          O            0.957000
  bond distance:  H          O            0.957000


  Bond angles (degrees):
  ----------------------

                  atom 1     atom 2     atom 3         angle
                  ------     ------     ------         -----
  bond angle:     H          O          H            104.500




 Principal moments of inertia (u*A**2) and principal axes
 --------------------------------------------------------

   IA       0.614476          0.000000    1.000000    0.000000
   IB       1.154121          0.000000    0.000000    1.000000
   IC       1.768597          1.000000    0.000000    0.000000


 Rotational constants
 --------------------

@    The molecule is planar.

               A                   B                   C

         822455.8206         437890.8074         285751.4237 MHz
           27.434173           14.606465            9.531642 cm-1


@  Nuclear repulsion energy :    9.196931932729 Hartree


                     .---------------------------------------.
                     | Starting in Integral Section (HERMIT) |
                     `---------------------------------------'



 ***************************************************************************************
 ****************** Output from **INTEGRALS input processing (HERMIT) ******************
 ***************************************************************************************


 - Using defaults, no **INTEGRALS input found

 Default print level:        1

 * Nuclear model: Point charge

 Calculation of one- and two-electron Hamiltonian integrals.

 Center of mass  (bohr):      0.000000000000      0.000000000000      0.000000000043
 Operator center (bohr):      0.000000000000      0.000000000000      0.000000000000
 Gauge origin    (bohr):      0.000000000000      0.000000000000      0.000000000000
 Dipole origin   (bohr):      0.000000000000      0.000000000000      0.000000000000


     ************************************************************************
     ************************** Output from HERINT **************************
     ************************************************************************



                      Nuclear contribution to dipole moments
                      --------------------------------------

                 au               Debye          C m (/(10**-30)

      x      0.00000000         0.00000000         0.00000000
      y      0.00000000         0.00000000         0.00000000
      z      0.97525666         2.47885502         8.26857033



 Threshold for neglecting two-electron integrals:  1.00D-12
 HERMIT - Number of two-electron integrals written:       21643 ( 47.9% )
 HERMIT - Megabytes written:                              0.254

  Total CPU  time used in HERMIT:   0.04 seconds
  Total wall time used in HERMIT:   0.05 seconds


                        .----------------------------------.
                        | End of Integral Section (HERMIT) |
                        `----------------------------------'



                   .--------------------------------------------.
                   | Starting in Wave Function Section (SIRIUS) |
                   `--------------------------------------------'

NCCEXCI for singlet:    8
 CCSD_INPUT: skip Nij*xksi or TX*B
 CCSD_INPUT: Add EOM extra term   

 *** Output from Huckel module :

     Using EWMO model:          T
     Using EHT  model:          F
     Number of Huckel orbitals each symmetry:    7

 EWMO - Energy Weighted Maximum Overlap - is a Huckel type method,
        which normally is better than Extended Huckel Theory.
 Reference: Linderberg and Ohrn, Propagators in Quantum Chemistry (Wiley, 1973)

 Huckel EWMO eigenvalues for symmetry :  1
          -20.684972      -1.611850      -0.778224      -0.688390      -0.616200
           -0.232194      -0.168069

 **********************************************************************
 *SIRIUS* a direct, restricted step, second order MCSCF program       *
 **********************************************************************

 
     Date and time (Linux)  : Thu Nov  9 16:56:27 2017
     Host name              : kemi-czc7084xz.win.dtu.dk               

 Title lines from ".mol" input file:
     Water                                                                   
     Empty line                                                              

 Print level on unit LUPRI =   2 is   0
 Print level on unit LUW4  =   2 is   5

@    (Integral direct) CC calculation.

@    This is a combination run starting with
@              a restricted, closed shell Hartree-Fock calculation


 Initial molecular orbitals are obtained according to
 ".MOSTART EWMO  " input option

     Wave function specification
     ============================

     For the specification of the Coupled Cluster: see later.

@    Wave function type        --- CC ---
@    Number of closed shell electrons          10
@    Number of electrons in active shells       0
@    Total charge of the molecule               0

@    Spin multiplicity and 2 M_S                1         0
@    Total number of symmetries                 1 (point group: C1 )
@    Reference state symmetry                   1 (irrep name : A  )

     Orbital specifications
     ======================
@    Abelian symmetry species          All |    1
@                                          |  A  
                                       --- |  ---
@    Occupied SCF orbitals               5 |    5
@    Secondary orbitals                 19 |   19
@    Total number of orbitals           24 |   24
@    Number of basis functions          24 |   24

     Optimization information
     ========================
@    Number of configurations                 1
@    Number of orbital rotations             95
     ------------------------------------------
@    Total number of variables               96

     Maximum number of Fock   iterations      0
     Maximum number of DIIS   iterations     60
     Maximum number of QC-SCF iterations     60
     Threshold for SCF convergence     1.00D-11


 Changes of defaults for CC:
 ---------------------------

 -Excitation energies calculated
 -One-photon absorption strengths will be calculated
 -Transition strengths between two excited states calculated.
  


 ***********************************************
 ***** DIIS acceleration of SCF iterations *****
 ***********************************************

 C1-DIIS algorithm; max error vectors =    8

 Iter      Total energy        Error norm    Delta(E)  DIIS dim.
 -----------------------------------------------------------------------------

Calculating AOSUPINT
     (Precalculated two-electron integrals are transformed to P-supermatrix elements.
      Threshold for discarding integrals :  1.00D-12 )
@  1    -75.8496242030        1.64500D+00   -7.58D+01    1
      Virial theorem: -V/T =      2.000028
@      MULPOP O      -0.55; H       0.28; H       0.28; 
   1  Level shift: doubly occupied orbital energies shifted by -2.00D-01
 -----------------------------------------------------------------------------
@  2    -76.0170375713        3.42808D-01   -1.67D-01    2
      Virial theorem: -V/T =      2.001693
@      MULPOP O      -0.27; H       0.14; H       0.14; 
   2  Level shift: doubly occupied orbital energies shifted by -5.00D-02
 -----------------------------------------------------------------------------
@  3    -76.0260187624        8.33703D-02   -8.98D-03    3
      Virial theorem: -V/T =      2.000264
@      MULPOP O      -0.29; H       0.14; H       0.14; 
   3  Level shift: doubly occupied orbital energies shifted by -1.25D-02
 -----------------------------------------------------------------------------
@  4    -76.0267705059        1.92257D-02   -7.52D-04    4
      Virial theorem: -V/T =      2.000715
@      MULPOP O      -0.30; H       0.15; H       0.15; 
 -----------------------------------------------------------------------------
@  5    -76.0268016500        8.25680D-03   -3.11D-05    5
      Virial theorem: -V/T =      2.000338
@      MULPOP O      -0.30; H       0.15; H       0.15; 
 -----------------------------------------------------------------------------
@  6    -76.0268076327        1.67337D-03   -5.98D-06    6
      Virial theorem: -V/T =      2.000473
@      MULPOP O      -0.31; H       0.15; H       0.15; 
 -----------------------------------------------------------------------------
@  7    -76.0268081583        2.10108D-04   -5.26D-07    7
      Virial theorem: -V/T =      2.000488
@      MULPOP O      -0.31; H       0.15; H       0.15; 
 -----------------------------------------------------------------------------
@  8    -76.0268081651        3.33889D-05   -6.83D-09    8
      Virial theorem: -V/T =      2.000488
@      MULPOP O      -0.31; H       0.15; H       0.15; 
 -----------------------------------------------------------------------------
@  9    -76.0268081652        5.53623D-06   -1.43D-10    8
      Virial theorem: -V/T =      2.000488
@      MULPOP O      -0.31; H       0.15; H       0.15; 
 -----------------------------------------------------------------------------
@ 10    -76.0268081652        4.37870D-07   -3.69D-12    8
      Virial theorem: -V/T =      2.000488
@      MULPOP O      -0.31; H       0.15; H       0.15; 
 -----------------------------------------------------------------------------
@ 11    -76.0268081652        6.88710D-08    0.00D+00    8
      Virial theorem: -V/T =      2.000488
@      MULPOP O      -0.31; H       0.15; H       0.15; 
 -----------------------------------------------------------------------------
@ 12    -76.0268081652        8.36360D-09    2.84D-14    8
      Virial theorem: -V/T =      2.000488
@      MULPOP O      -0.31; H       0.15; H       0.15; 
 -----------------------------------------------------------------------------
@ 13    -76.0268081652        1.29118D-09    0.00D+00    8
      Virial theorem: -V/T =      2.000488
@      MULPOP O      -0.31; H       0.15; H       0.15; 
 -----------------------------------------------------------------------------
@ 14    -76.0268081652        1.57299D-10   -2.84D-14    8
      Virial theorem: -V/T =      2.000488
@      MULPOP O      -0.31; H       0.15; H       0.15; 
 -----------------------------------------------------------------------------
@ 15    -76.0268081652        2.74168D-11   -2.84D-14    8
      Virial theorem: -V/T =      2.000488
@      MULPOP O      -0.31; H       0.15; H       0.15; 
 -----------------------------------------------------------------------------
@ 16    -76.0268081652        4.93451D-12    5.68D-14    8

@ *** DIIS converged in  16 iterations !
@     Converged SCF energy, gradient:    -76.026808165250    4.93D-12
    - total time used in SIRFCK :              0.00 seconds


 *** SCF orbital energy analysis ***

 Number of electrons :   10
 Orbital occupations :    5

 Sym       Hartree-Fock orbital energies

1 A     -20.55039011    -1.33682614    -0.69940558    -0.56664574    -0.49316918
          0.18560873     0.25629059     0.78945155     0.85462704     1.16350007
          1.20038401     1.25330055     1.44443875     1.47636958     1.67465608
          1.86721905     1.93526815     2.45346939     2.49106020     3.28596075
          3.33912410     3.51094882     3.86608421     4.14787768

    E(LUMO) :     0.18560873 au (symmetry 1)
  - E(HOMO) :    -0.49316918 au (symmetry 1)
  ------------------------------------------
    gap     :     0.67877792 au

 --- Writing SIRIFC interface file

 CPU and wall time for SCF :       0.012       0.012


                       .-----------------------------------.
                       | --- Final results from SIRIUS --- |
                       `-----------------------------------'


@    Spin multiplicity:           1
@    Spatial symmetry:            1 ( irrep  A   in C1  )
@    Total charge of molecule:    0

@    Final HF energy:             -76.026808165250                 
@    Nuclear repulsion:             9.196931932729
@    Electronic energy:           -85.223740097979

@    Final gradient norm:           0.000000000005

 
     Date and time (Linux)  : Thu Nov  9 16:56:27 2017
     Host name              : kemi-czc7084xz.win.dtu.dk               

File label for MO orbitals:   9Nov17   FOCKDIIS

 (Only coefficients > 0.0100 are printed.)

 Molecular orbitals for symmetry species 1  (A  )
 ------------------------------------------------

    Orbital         1        2        3        4        5        6        7
   1 O   :1s    -1.0004   0.0082  -0.0000   0.0022  -0.0000   0.0520   0.0000
   2 O   :1s    -0.0023  -0.8703  -0.0000  -0.2956  -0.0000  -0.1427   0.0000
   3 O   :1s     0.0014   0.1230   0.0000  -0.1806  -0.0000  -0.9212  -0.0000
   4 O   :2px   -0.0000  -0.0000   0.0000  -0.0000   0.9196  -0.0000  -0.0000
   5 O   :2py   -0.0000   0.0000  -0.7140  -0.0000   0.0000   0.0000   0.4125
   6 O   :2pz   -0.0026  -0.1150  -0.0000   0.7948   0.0000  -0.2774   0.0000
   7 O   :2px   -0.0000  -0.0000   0.0000  -0.0000   0.0721  -0.0000  -0.0000
   8 O   :2py   -0.0000  -0.0000   0.1070   0.0000  -0.0000  -0.0000   0.4810
   9 O   :2pz    0.0017   0.0661   0.0000  -0.0008   0.0000  -0.2091  -0.0000
  11 O   :3d1-  -0.0000  -0.0000  -0.0268   0.0000  -0.0000  -0.0000   0.0213
  12 O   :3d0   -0.0000  -0.0012   0.0000   0.0179   0.0000  -0.0075   0.0000
  13 O   :3d1+  -0.0000  -0.0000   0.0000  -0.0000   0.0182  -0.0000  -0.0000
  14 O   :3d2+   0.0001   0.0030   0.0000  -0.0046  -0.0000   0.0100  -0.0000
  15 H   :1s     0.0004  -0.3297  -0.5582   0.3512   0.0000   0.1002  -0.0440
  16 H   :1s    -0.0006   0.1552   0.1901  -0.1358   0.0000   0.7792  -1.4230
  17 H   :2px    0.0000   0.0000  -0.0000   0.0000   0.0311   0.0000   0.0000
  18 H   :2py   -0.0006   0.0373   0.0233  -0.0318  -0.0000  -0.0176   0.0209
  19 H   :2pz   -0.0005   0.0205   0.0327   0.0076  -0.0000  -0.0163   0.0172
  20 H   :1s     0.0004  -0.3297   0.5582   0.3512   0.0000   0.1002   0.0440
  21 H   :1s    -0.0006   0.1552  -0.1901  -0.1358  -0.0000   0.7792   1.4230
  22 H   :2px    0.0000   0.0000  -0.0000   0.0000   0.0311   0.0000   0.0000
  23 H   :2py    0.0006  -0.0373   0.0233   0.0318  -0.0000   0.0176   0.0209
  24 H   :2pz   -0.0005   0.0205  -0.0327   0.0076  -0.0000  -0.0163  -0.0172

    Orbital         8        9       10       11       12       13       14
   1 O   :1s    -0.0000   0.0650  -0.0032   0.0000  -0.0000  -0.2017   0.0000
   2 O   :1s    -0.0000   0.5027  -0.2257   0.0000  -0.0000  -1.0396   0.0000
   3 O   :1s     0.0000  -0.6077  -0.6208   0.0000   0.0000   1.1018  -0.0000
   4 O   :2px   -0.0000  -0.0000  -0.0000  -1.4102  -0.0000   0.0000   0.0000
   5 O   :2py    0.3902   0.0000  -0.0000  -0.0000  -1.0694   0.0000  -0.0000
   6 O   :2pz   -0.0000   0.4799   1.0990  -0.0000  -0.0000   0.1920  -0.0000
   7 O   :2px   -0.0000  -0.0000  -0.0000   1.6749  -0.0000   0.0000  -0.0000
   8 O   :2py    0.2822  -0.0000   0.0000   0.0000   2.2571   0.0000   0.0000
   9 O   :2pz    0.0000  -0.2312  -1.7859  -0.0000   0.0000  -0.8279   0.0000
  10 O   :3d2-  -0.0000  -0.0000   0.0000   0.0000  -0.0000   0.0000  -0.1312
  11 O   :3d1-  -0.1118  -0.0000   0.0000   0.0000   0.0447   0.0000  -0.0000
  12 O   :3d0   -0.0000  -0.0010  -0.0127  -0.0000   0.0000   0.1171  -0.0000
  14 O   :3d2+  -0.0000   0.1071  -0.0067   0.0000  -0.0000   0.0046   0.0000
  15 H   :1s    -1.6071  -1.3394   0.9320  -0.0000  -0.6460   0.5671   0.0000
  16 H   :1s     1.4912   1.2189  -0.3541  -0.0000  -0.5022  -0.4939  -0.0000
  17 H   :2px    0.0000   0.0000   0.0000   0.0078   0.0000  -0.0000  -0.6856
  18 H   :2py   -0.0741  -0.2964  -0.0845   0.0000   0.3026  -0.3291  -0.0000
  19 H   :2pz   -0.1530  -0.0593  -0.2505   0.0000   0.1869   0.5458   0.0000
  20 H   :1s     1.6071  -1.3394   0.9320  -0.0000   0.6460   0.5671   0.0000
  21 H   :1s    -1.4912   1.2189  -0.3541   0.0000   0.5022  -0.4939  -0.0000
  22 H   :2px    0.0000   0.0000   0.0000   0.0078   0.0000  -0.0000   0.6856
  23 H   :2py   -0.0741   0.2964   0.0845   0.0000   0.3026   0.3291   0.0000
  24 H   :2pz    0.1530  -0.0593  -0.2505   0.0000  -0.1869   0.5458   0.0000

    Orbital        15
   4 O   :2px   -0.0304
   7 O   :2px   -0.6194
  13 O   :3d1+   0.1607
  17 H   :2px    0.7672
  22 H   :2px    0.7672

  Total CPU  time used in SIRIUS :   0.02 seconds
  Total wall time used in SIRIUS :   0.02 seconds

 
     Date and time (Linux)  : Thu Nov  9 16:56:27 2017
     Host name              : kemi-czc7084xz.win.dtu.dk               


                     .---------------------------------------.
                     | End of Wave Function Section (SIRIUS) |
                     `---------------------------------------'



                    .------------------------------------------.
                    | Starting in Coupled Cluster Section (CC) |
                    `------------------------------------------'

  

 *******************************************************************************
 *******************************************************************************
 *                                                                             *
 *                                                                             *
 *                    START OF COUPLED CLUSTER CALCULATION                     *
 *                                                                             *
 *                                                                             *
 *******************************************************************************
 *******************************************************************************


 LWORK =        64000000



 CCR12 ANSATZ =   0

 CCR12 APPROX =   0

   

 *******************************************************************
 *                                                                 *
 *----------                                             >---------*
 *---------- OUTPUT FROM COUPLED CLUSTER ENERGY PROGRAM  >---------*
 *----------                                             >---------*
 *                                                                 *
 *******************************************************************


             The Direct Coupled Cluster Energy Program
             -----------------------------------------


          Number of t1 amplitudes                 :        95
          Number of t2 amplitudes                 :      4560
          Total number of amplitudes in ccsd      :      4655



                        +---------------------------------+
                        ! Largest amplitudes in MP2 guess !
                        +---------------------------------+



          CC_PRAM:Overall Contribution of the Different Components
          --------------------------------------------------------



          Single Excitation Contribution :               0.0000 %

          Double Excitation Contribution :             100.0000 %

          ||T1||/||T2||                  :               0.0000

          Norm of Total Amplitude Vector :               0.1548


 +=============================================================================+
 | symmetry|  orbital index  |   Excitation Numbers             |   Amplitude  |
 |  Index  |   a   b   i   j |      NAI      NBJ |     NAIBJ    |              |
 +=============================================================================+
 +-----------------------------------------------------------------------------+
 | 1 1 1 1 |   2   2   3   3 |       40       40 |          820 |   -0.026164  |
 | 1 1 1 1 |   6   2   5   3 |       82       40 |         3361 |   -0.022936  |
 | 1 1 1 1 |   3   3   3   3 |       41       41 |          861 |   -0.030121  |
 | 1 1 1 1 |   4   4   3   3 |       42       42 |          903 |   -0.023526  |
 | 1 1 1 1 |   7   7   3   3 |       45       45 |         1035 |   -0.021519  |
 | 1 1 1 1 |   6   7   5   3 |       82       45 |         3366 |    0.023248  |
 | 1 1 1 1 |   3   3   4   4 |       60       60 |         1830 |   -0.021747  |
 | 1 1 1 1 |   5   5   4   4 |       62       62 |         1953 |   -0.032759  |
 | 1 1 1 1 |   6   5   5   4 |       82       62 |         3383 |    0.029305  |
 | 1 1 1 1 |   6   6   5   5 |       82       82 |         3403 |   -0.047146  |
 +=============================================================================+


          Norm of Printed Amplitude Vector :             0.0911

          Printed all single excitations greater than 0.010000

          Printed all double excitations greater than 0.020000
 Iter.  1: Coupled cluster MP2   energy :     -76.2307563423372869
     Conventional correlation energy:    -0.2039481770873692

       Iteration no.:  1
       -----------------

       Time used in   RHS - TOTAL  :       0.01 seconds
       Norm^2 of t1am   after ccvec:        0.0000000000D+00
       Norm^2 of t2am   after ccvec:        0.2397632652D-01
       Norm^2 of omega1 after ccvec:        0.9082508581D-03
       Norm^2 of omega2 after ccvec:        0.5442953076D-02
 Iter.  1: Coupled cluster CCSD  energy :     -76.2357152945662904
     Conventional correlation energy:    -0.2089071293163727

       Iteration no.:  2
       -----------------

       Time used in   RHS - TOTAL  :       0.01 seconds
       Norm^2 of t1am   after ccvec:        0.1608634519D-03
       Norm^2 of t2am   after ccvec:        0.2693464297D-01
       Norm^2 of omega1 after ccvec:        0.2815243964D-04
       Norm^2 of omega2 after ccvec:        0.5295756085D-03
 Iter.  2: Coupled cluster CCSD  energy :     -76.2396064923115802
     Conventional correlation energy:    -0.2127983270616625

       Iteration no.:  3
       -----------------

       Time used in   RHS - TOTAL  :       0.01 seconds
       Norm^2 of t1am   after ccvec:        0.2239663009D-03
       Norm^2 of t2am   after ccvec:        0.2912636727D-01
       Norm^2 of omega1 after ccvec:        0.2781085574D-05
       Norm^2 of omega2 after ccvec:        0.2622097878D-04
 Iter.  3: Coupled cluster CCSD  energy :     -76.2400655731058947
     Conventional correlation energy:    -0.2132574078559770

       Iteration no.:  4
       -----------------

       Time used in   RHS - TOTAL  :       0.01 seconds
       Norm^2 of t1am   after ccvec:        0.2663471510D-03
       Norm^2 of t2am   after ccvec:        0.2960421500D-01
       Norm^2 of omega1 after ccvec:        0.1011553104D-06
       Norm^2 of omega2 after ccvec:        0.1418939896D-05
 Iter.  4: Coupled cluster CCSD  energy :     -76.2400720696135608
     Conventional correlation energy:    -0.2132639043636431

       Iteration no.:  5
       -----------------

       Time used in   RHS - TOTAL  :       0.01 seconds
       Norm^2 of t1am   after ccvec:        0.2713215863D-03
       Norm^2 of t2am   after ccvec:        0.2967062164D-01
       Norm^2 of omega1 after ccvec:        0.1185514939D-07
       Norm^2 of omega2 after ccvec:        0.5669368724D-07
 Iter.  5: Coupled cluster CCSD  energy :     -76.2400823589368457
     Conventional correlation energy:    -0.2132741936869280

       Iteration no.:  6
       -----------------

       Time used in   RHS - TOTAL  :       0.01 seconds
       Norm^2 of t1am   after ccvec:        0.2735938789D-03
       Norm^2 of t2am   after ccvec:        0.2968045699D-01
       Norm^2 of omega1 after ccvec:        0.1566313497D-08
       Norm^2 of omega2 after ccvec:        0.6622158165D-08
 Iter.  6: Coupled cluster CCSD  energy :     -76.2400806785931451
     Conventional correlation energy:    -0.2132725133432274

       Iteration no.:  7
       -----------------

       Time used in   RHS - TOTAL  :       0.01 seconds
       Norm^2 of t1am   after ccvec:        0.2744724840D-03
       Norm^2 of t2am   after ccvec:        0.2967842571D-01
       Norm^2 of omega1 after ccvec:        0.1074782201D-09
       Norm^2 of omega2 after ccvec:        0.4042777600D-09
 Iter.  7: Coupled cluster CCSD  energy :     -76.2400800477194593
     Conventional correlation energy:    -0.2132718824695417

       Iteration no.:  8
       -----------------

       Time used in   RHS - TOTAL  :       0.01 seconds
       Norm^2 of t1am   after ccvec:        0.2747323293D-03
       Norm^2 of t2am   after ccvec:        0.2967788506D-01
       Norm^2 of omega1 after ccvec:        0.1606384623D-11
       Norm^2 of omega2 after ccvec:        0.2709502252D-10
 Iter.  8: Coupled cluster CCSD  energy :     -76.2400799235876434
     Conventional correlation energy:    -0.2132717583377257

       Iteration no.:  9
       -----------------

       Time used in   RHS - TOTAL  :       0.01 seconds
       Norm^2 of t1am   after ccvec:        0.2747621047D-03
       Norm^2 of t2am   after ccvec:        0.2967779992D-01
       Norm^2 of omega1 after ccvec:        0.9459675577D-13
       Norm^2 of omega2 after ccvec:        0.1464141155D-11
 Iter.  9: Coupled cluster CCSD  energy :     -76.2400798955825820
     Conventional correlation energy:    -0.2132717303326643

       Iteration no.: 10
       -----------------

       Time used in   RHS - TOTAL  :       0.01 seconds
       Norm^2 of t1am   after ccvec:        0.2747645731D-03
       Norm^2 of t2am   after ccvec:        0.2967777763D-01
       Norm^2 of omega1 after ccvec:        0.1631246823D-13
       Norm^2 of omega2 after ccvec:        0.2319957263D-12
 Iter. 10: Coupled cluster CCSD  energy :     -76.2400798838104663
     Conventional correlation energy:    -0.2132717185605486

       Iteration no.: 11
       -----------------

       Time used in   RHS - TOTAL  :       0.01 seconds
       Norm^2 of t1am   after ccvec:        0.2747667651D-03
       Norm^2 of t2am   after ccvec:        0.2967776671D-01
       Norm^2 of omega1 after ccvec:        0.2290621932D-14
       Norm^2 of omega2 after ccvec:        0.7771331871D-14
 Iter. 11: Coupled cluster CCSD  energy :     -76.2400798807121731
     Conventional correlation energy:    -0.2132717154622554

       Iteration no.: 12
       -----------------

       Time used in   RHS - TOTAL  :       0.01 seconds
       Norm^2 of t1am   after ccvec:        0.2747677103D-03
       Norm^2 of t2am   after ccvec:        0.2967776456D-01
       Norm^2 of omega1 after ccvec:        0.2488042677D-15
       Norm^2 of omega2 after ccvec:        0.1043773972D-14
 Iter. 12: Coupled cluster CCSD  energy :     -76.2400798814801419
     Conventional correlation energy:    -0.2132717162302242

       Iteration no.: 13
       -----------------

       Time used in   RHS - TOTAL  :       0.01 seconds
       Norm^2 of t1am   after ccvec:        0.2747681585D-03
       Norm^2 of t2am   after ccvec:        0.2967776529D-01
       Norm^2 of omega1 after ccvec:        0.1035739661D-16
       Norm^2 of omega2 after ccvec:        0.6642394967D-16
 Iter. 13: Coupled cluster CCSD  energy :     -76.2400798817273966
     Conventional correlation energy:    -0.2132717164774789

       Iteration no.: 14
       -----------------

       Time used in   RHS - TOTAL  :       0.01 seconds
       Norm^2 of t1am   after ccvec:        0.2747682625D-03
       Norm^2 of t2am   after ccvec:        0.2967776540D-01
       Norm^2 of omega1 after ccvec:        0.3431210242D-18
       Norm^2 of omega2 after ccvec:        0.4168839337D-17
 Iter. 14: Coupled cluster CCSD  energy :     -76.2400798816712211
     Conventional correlation energy:    -0.2132717164213034

       Iteration no.: 15
       -----------------

       Time used in   RHS - TOTAL  :       0.01 seconds
       Norm^2 of t1am   after ccvec:        0.2747682644D-03
       Norm^2 of t2am   after ccvec:        0.2967776543D-01
       Norm^2 of omega1 after ccvec:        0.1341343938D-19
       Norm^2 of omega2 after ccvec:        0.1639327980D-18
 Iter. 15: Coupled cluster CCSD  energy :     -76.2400798816567118
     Conventional correlation energy:    -0.2132717164067941

       Iteration no.: 16
       -----------------

       Time used in   RHS - TOTAL  :       0.01 seconds
       Norm^2 of t1am   after ccvec:        0.2747682661D-03
       Norm^2 of t2am   after ccvec:        0.2967776544D-01
       Norm^2 of omega1 after ccvec:        0.9365959816D-21
       Norm^2 of omega2 after ccvec:        0.7260896989D-20
 Iter. 16: Coupled cluster CCSD  energy :     -76.2400798816671852
     Conventional correlation energy:    -0.2132717164172675

       Iteration no.: 17
       -----------------

       Time used in   RHS - TOTAL  :       0.01 seconds
       Norm^2 of t1am   after ccvec:        0.2747682661D-03
       Norm^2 of t2am   after ccvec:        0.2967776545D-01
       Norm^2 of omega1 after ccvec:        0.3395611816D-22
       Norm^2 of omega2 after ccvec:        0.2601051220D-21
 Iter. 17: Coupled cluster CCSD  energy :     -76.2400798816682226
     Conventional correlation energy:    -0.2132717164183049

 CCSD  energy converged to within   0.10D-10 is          -76.240079881668
 Final 2-norm of the CC vector function:  1.71482139D-11


                    +------------------------------------------+
                    ! Largest amplitudes in converged solution !
                    +------------------------------------------+



          CC_PRAM:Overall Contribution of the Different Components
          --------------------------------------------------------



          Single Excitation Contribution :               0.9173 %

          Double Excitation Contribution :              99.0827 %

          ||T1||/||T2||                  :               0.0962

          Tau1 diagnostic                :               0.0052

          Norm of Total Amplitude Vector :               0.1731


 +=============================================================================+
 | symmetry|  orbital index  |   Excitation Numbers             |   Amplitude  |
 |  Index  |   a   b   i   j |      NAI      NBJ |     NAIBJ    |              |
 +=============================================================================+
 | 1   1   |   1       2     |       20          |              |   -0.003931  |
 | 1   1   |   5       2     |       24          |              |   -0.004233  |
 | 1   1   |  14       2     |       33          |              |    0.002672  |
 | 1   1   |   2       3     |       40          |              |    0.005945  |
 | 1   1   |   7       3     |       45          |              |    0.004519  |
 | 1   1   |  13       3     |       51          |              |   -0.007310  |
 | 1   1   |   1       4     |       58          |              |    0.007320  |
 | 1   1   |   4       4     |       61          |              |   -0.002937  |
 | 1   1   |   8       4     |       65          |              |    0.002945  |
 | 1   1   |  14       4     |       71          |              |   -0.004979  |
 | 1   1   |   6       5     |       82          |              |    0.003042  |
 | 1   1   |  10       5     |       86          |              |    0.003272  |
 +-----------------------------------------------------------------------------+
 | 1 1 1 1 |   2   2   3   3 |       40       40 |          820 |   -0.029190  |
 | 1 1 1 1 |   3   2   3   3 |       41       40 |          860 |   -0.020892  |
 | 1 1 1 1 |   6   2   5   3 |       82       40 |         3361 |   -0.021652  |
 | 1 1 1 1 |   3   3   3   3 |       41       41 |          861 |   -0.036079  |
 | 1 1 1 1 |   4   4   3   3 |       42       42 |          903 |   -0.028351  |
 | 1 1 1 1 |   3   4   4   3 |       60       42 |         1812 |    0.021482  |
 | 1 1 1 1 |   7   7   3   3 |       45       45 |         1035 |   -0.022144  |
 | 1 1 1 1 |   6   7   5   3 |       82       45 |         3366 |    0.022786  |
 | 1 1 1 1 |   3   3   4   4 |       60       60 |         1830 |   -0.025627  |
 | 1 1 1 1 |   5   5   4   4 |       62       62 |         1953 |   -0.035385  |
 | 1 1 1 1 |   6   5   5   4 |       82       62 |         3383 |    0.028597  |
 | 1 1 1 1 |   6   6   5   5 |       82       82 |         3403 |   -0.051382  |
 +=============================================================================+


          Norm of Printed Amplitude Vector :             0.1047

          Printed all single excitations greater than 0.002000

          Printed all double excitations greater than 0.019908





             +-------------------------------------------------------+
             ! Final results from the Coupled Cluster energy program !
             +-------------------------------------------------------+



            Total SCF   energy:                   -76.0268081652

            Total MP2   energy:                   -76.2307563423

            Total CCSD  energy:                   -76.2400798817




                   +--------------------------------------------+
                   ! Calculating singlet intermediates for CCLR !
                   +--------------------------------------------+



       Time used in   RHS - TOTAL  :       0.01 seconds


            E-intermediates calculated 
            Fock-intermediate calculated 
            Gamma-intermediate calculated 
            BF-intermediate calculated 
            C-intermediate calculated 
            D-intermediate calculated 


   

 *******************************************************************
 *                                                                 *
 *---- OUTPUT FROM COUPLED CLUSTER RESPONSE  -------------*
 *                                                                 *
 *******************************************************************



                         +--------------------------------+
                         ! Coupled Cluster model is: CCSD !
                         +--------------------------------+


 Solving   1 response equations:
 L0 :
 SONIAPRI    47272548
 CCEQ_STR: CVSEPARATION =  F
 CCEQ_STR: IONIZATION =  F
 CCEQ_STR: REMOVE_CORE =  F
     Start vector generated from gradient
 CCEQ_SOL: IPRLE   =               5
 CCEQ_SOL: TRIPLET =     F
 CCEQ_SOL: LINQCC  =     T
 CCEQ_SOL: NREDH   =               1
 CCEQ_SOL: MAXRED  =             300
 CCEQ_SOL: MAXLE   =             200
 CCEQ_SOL: ISIDE   =              -1
 CCEQ_SOL: ISTRVE  =               1
 CCEQ_SOL: NVEC    =               1
 CCEQ_SOL: NUPVEC  =               1
 CCEQ_SOL: NCCVAR  =            4655
 CCEQ_SOL: CVSEPARA=     F
 CCEQ_SOL: LIONISAT=     F
 CCEQ_SOL: REMOVE_CORE =  F
 CCEQ_SOL: CVSEPARA=     F
 CCEQ_SOL: LIONISAT=     F
 CCEQ_SOL: REMOVE_CORE =  F



 ----- COUPLED CLUSTER RESPONSE SOLVER -----

    Iter  #Vectors  time (min)   residual
    --------------------------------------
  
 Time used in CC_LHTR :   1.1326998472213745E-002
  
  
 ROOT:  1 RESIDUAL TOT: 4.59482D-01
      1       1         0.00     0.46E+00
 Dimension of the reduced space:     2
 --- TIME USED IN THIS MICRO ITERATION        0.01

  
 Time used in CC_LHTR :   1.1678010225296021E-002
  
  
 ROOT:  1 RESIDUAL TOT: 9.96970D-02
      2       1         0.00     0.10E+00
 Dimension of the reduced space:     3
 --- TIME USED IN THIS MICRO ITERATION        0.01

  
 Time used in CC_LHTR :   1.1716991662979126E-002
  
  
 ROOT:  1 RESIDUAL TOT: 2.09132D-02
      3       1         0.00     0.21E-01
 Dimension of the reduced space:     4
 --- TIME USED IN THIS MICRO ITERATION        0.01

  
 Time used in CC_LHTR :   1.1694997549057007E-002
  
  
 ROOT:  1 RESIDUAL TOT: 5.16740D-03
      4       1         0.00     0.52E-02
 Dimension of the reduced space:     5
 --- TIME USED IN THIS MICRO ITERATION        0.01

  
 Time used in CC_LHTR :   1.1620014905929565E-002
  
  
 ROOT:  1 RESIDUAL TOT: 1.09696D-03
      5       1         0.00     0.11E-02
 Dimension of the reduced space:     6
 --- TIME USED IN THIS MICRO ITERATION        0.01

  
 Time used in CC_LHTR :   1.1645019054412842E-002
  
  
 ROOT:  1 RESIDUAL TOT: 3.97092D-04
      6       1         0.00     0.40E-03
 Dimension of the reduced space:     7
 --- TIME USED IN THIS MICRO ITERATION        0.01

  
 Time used in CC_LHTR :   1.1608004570007324E-002
  
  
 ROOT:  1 RESIDUAL TOT: 1.05556D-04
      7       1         0.00     0.11E-03
 Dimension of the reduced space:     8
 --- TIME USED IN THIS MICRO ITERATION        0.01

  
 Time used in CC_LHTR :   1.1646002531051636E-002
  
  
 ROOT:  1 RESIDUAL TOT: 2.71891D-05
      8       1         0.00     0.27E-04
 Dimension of the reduced space:     9
 --- TIME USED IN THIS MICRO ITERATION        0.01

  
 Time used in CC_LHTR :   1.1635988950729370E-002
  
  
 ROOT:  1 RESIDUAL TOT: 5.76370D-06
      9       1         0.00     0.58E-05
 Dimension of the reduced space:    10
 --- TIME USED IN THIS MICRO ITERATION        0.01

  
 Time used in CC_LHTR :   1.1675000190734863E-002
  
  
 ROOT:  1 RESIDUAL TOT: 1.14679D-06
     10       1         0.00     0.11E-05
 Dimension of the reduced space:    11
 --- TIME USED IN THIS MICRO ITERATION        0.01

  
 Time used in CC_LHTR :   1.1683017015457153E-002
  
  
 ROOT:  1 RESIDUAL TOT: 2.11164D-07
     11       1         0.00     0.21E-06
 Dimension of the reduced space:    12
 --- TIME USED IN THIS MICRO ITERATION        0.01

  
 Time used in CC_LHTR :   1.1731982231140137E-002
  
  
 ROOT:  1 RESIDUAL TOT: 3.38509D-08
     12       1         0.00     0.34E-07
 Dimension of the reduced space:    13
 --- TIME USED IN THIS MICRO ITERATION        0.01

  
 Time used in CC_LHTR :   1.1706978082656860E-002
  
  
 ROOT:  1 RESIDUAL TOT: 6.87867D-09
     13       1         0.00     0.69E-08
 Dimension of the reduced space:    14
 --- TIME USED IN THIS MICRO ITERATION        0.01

  
 Time used in CC_LHTR :   1.2079000473022461E-002
  
  
 ROOT:  1 RESIDUAL TOT: 1.19039D-09
     14       1         0.00     0.12E-08
 Dimension of the reduced space:    15
 --- TIME USED IN THIS MICRO ITERATION        0.01

  
 Time used in CC_LHTR :   1.1651992797851562E-002
  
  
 ROOT:  1 RESIDUAL TOT: 2.20090D-10
     15       1         0.00     0.22E-09
 Dimension of the reduced space:    16
 --- TIME USED IN THIS MICRO ITERATION        0.01

  
 Time used in CC_LHTR :   1.1620998382568359E-002
  
  
 ROOT:  1 RESIDUAL TOT: 4.68957D-11
     16       1         0.00     0.47E-10
 Dimension of the reduced space:    17
 --- TIME USED IN THIS MICRO ITERATION        0.01

  
 Time used in CC_LHTR :   1.1851996183395386E-002
  
  
 ROOT:  1 RESIDUAL TOT: 9.28232D-12
 ROOT:  1 HAS CONVERGED. RESIDUAL TOT: 9.28232D-12
     17       1         0.00     0.93E-11
 Dimension of the reduced space:    17
 --- TIME USED IN THIS MICRO ITERATION        0.01

    --------------------------------------
    converged in 17 iterations
    threshold:    0.10E-10


         Routine          Time (min)
         ---------------------------
         CC_TRDRV            0.00
         CCRED               0.00
         CCNEX               0.00
         ---------------------------
         Total time          0.00


  Total CPU  time used in CCEQ_SOLV:   0.22 seconds
  Total wall time used in CCEQ_SOLV:   0.27 seconds


 xxxxxxxxxxxxxxxxxxxxxxxxxxxxxxxxxxxxx



 Analysis of CC Response/Cauchy vector:
 --------------------------------------


          CC_PRAM:Overall Contribution of the Different Components
          --------------------------------------------------------



          Single Excitation Contribution :               0.3650 %

          Double Excitation Contribution :              99.6350 %

          ||T1||/||T2||                  :               0.0605

          Norm of Total Amplitude Vector :               0.4378


 +=============================================================================+
 | symmetry|  orbital index  |   Excitation Numbers             |   Amplitude  |
 |  Index  |   a   b   i   j |      NAI      NBJ |     NAIBJ    |              |
 +=============================================================================+
 | 1   1   |  13       3     |       51          |              |   -0.012289  |
 | 1   1   |   1       4     |       58          |              |    0.010458  |
 +-----------------------------------------------------------------------------+
 | 1 1 1 1 |   6   6   5   5 |       82       82 |         3403 |   -0.102288  |
 +=============================================================================+


          Norm of Printed Amplitude Vector :             0.1036

          Printed all single excitations greater than 0.010000

          Printed all double excitations greater than 0.099817
            Norm of singles part:        0.2644965839E-01
            Norm of doubles part:        0.4369703632E+00
  
   

 *******************************************************************
 *                                                                 *
 *---------- OUTPUT FROM COUPLED CLUSTER LINEAR RESPONSE >---------*
 *                                                                 *
 *----------     CALCULATION OF EXCITATION ENERGIES      >---------*
 *                                                                 *
 *******************************************************************



                           +---------------------------+
                           !  CCSD Excitation Energies !
                           +---------------------------+


 --------------------------
 Symmetry class Nr.:     1
 Multiplicity      :     1
 --------------------------

 Length of Excitation vectors in this class is:      4655
 Converging for  8 roots.
 SONIAPRI -1095056608
 CCEQ_STR: CVSEPARATION =  F
 CCEQ_STR: IONIZATION =  F
 CCEQ_STR: REMOVE_CORE =  F
  -- output from FNDMN3 --
  LOWEST VALUE AND PLACE   0.67877791819092326               77
  HIGHST VALUE AND PLACE    49.396535575963100              285
IELMNT XMIN IMIN NDEG        1    6.78778D-01      77   1
IELMNT XMIN IMIN NDEG        2    7.49460D-01      78   1
IELMNT XMIN IMIN NDEG        3    7.52254D-01      58   1
IELMNT XMIN IMIN NDEG        4    8.22936D-01      59   1
IELMNT XMIN IMIN NDEG        5    8.85014D-01      39   1
IELMNT XMIN IMIN NDEG        6    9.55696D-01      40   1
IELMNT XMIN IMIN NDEG        7    1.28262D+00      79   1
IELMNT XMIN IMIN NDEG        8    1.34780D+00      80   1
IELMNT XMIN IMIN NDEG        9    1.35610D+00      60   1
IELMNT XMIN IMIN NDEG       10    1.35756D+00    3098   1
IELMNT XMIN IMIN NDEG       11    1.42127D+00      61   1
IELMNT XMIN IMIN NDEG       12    1.42824D+00    3175   1
  NUMBER OF ELEMENTS OBTAINED IN FNDMN3           11
  FROM FNDMN3 : 
    PLACES OF LOWEST ELEMENTS 
     1 :     77     78     58     59     39     40     79     80     60   3098
             61
  MIN AND MAX IN SELECTED SUPSPACE   0.67877791819092326        1.4212727872381619     
 Start vector guessed from diagonal
 ... selected element no. 77
 Start vector guessed from diagonal
 ... selected element no. 78
 Start vector guessed from diagonal
 ... selected element no. 58
 Start vector guessed from diagonal
 ... selected element no. 59
 Start vector guessed from diagonal
 ... selected element no. 39
 Start vector guessed from diagonal
 ... selected element no. 40
 Start vector guessed from diagonal
 ... selected element no. 79
 Start vector guessed from diagonal
 ... selected element no. 80
 CCEQ_SOL: IPRLE   =               5
 CCEQ_SOL: TRIPLET =     F
 CCEQ_SOL: LINQCC  =     F
 CCEQ_SOL: NREDH   =               8
 CCEQ_SOL: MAXRED  =             300
 CCEQ_SOL: MAXLE   =             200
 CCEQ_SOL: ISIDE   =               1
 CCEQ_SOL: ISTRVE  =               1
 CCEQ_SOL: NVEC    =               8
 CCEQ_SOL: NUPVEC  =               8
 CCEQ_SOL: NCCVAR  =            4655
 CCEQ_SOL: CVSEPARA=     F
 CCEQ_SOL: LIONISAT=     F
 CCEQ_SOL: REMOVE_CORE =  F
 CCEQ_SOL: CVSEPARA=     F
 CCEQ_SOL: LIONISAT=     F
 CCEQ_SOL: REMOVE_CORE =  F



 ----- COUPLED CLUSTER RESPONSE SOLVER -----

    Iter  #Vectors  time (min)   residual
    --------------------------------------


 Time used in     CC_RHTR in total   :       0.01 seconds
 Time used in   CC part              :       0.01 seconds
 Time used in   Int. calc. & read    :       0.00 seconds
 Time used in   IO of vectors/I.M.   :       0.00 seconds
  


 Time used in     CC_RHTR in total   :       0.01 seconds
 Time used in   CC part              :       0.01 seconds
 Time used in   Int. calc. & read    :       0.00 seconds
 Time used in   IO of vectors/I.M.   :       0.00 seconds
  


 Time used in     CC_RHTR in total   :       0.01 seconds
 Time used in   CC part              :       0.01 seconds
 Time used in   Int. calc. & read    :       0.00 seconds
 Time used in   IO of vectors/I.M.   :       0.00 seconds
  


 Time used in     CC_RHTR in total   :       0.01 seconds
 Time used in   CC part              :       0.01 seconds
 Time used in   Int. calc. & read    :       0.00 seconds
 Time used in   IO of vectors/I.M.   :       0.00 seconds
  


 Time used in     CC_RHTR in total   :       0.01 seconds
 Time used in   CC part              :       0.01 seconds
 Time used in   Int. calc. & read    :       0.00 seconds
 Time used in   IO of vectors/I.M.   :       0.00 seconds
  


 Time used in     CC_RHTR in total   :       0.01 seconds
 Time used in   CC part              :       0.01 seconds
 Time used in   Int. calc. & read    :       0.00 seconds
 Time used in   IO of vectors/I.M.   :       0.00 seconds
  


 Time used in     CC_RHTR in total   :       0.01 seconds
 Time used in   CC part              :       0.01 seconds
 Time used in   Int. calc. & read    :       0.00 seconds
 Time used in   IO of vectors/I.M.   :       0.00 seconds
  


 Time used in     CC_RHTR in total   :       0.01 seconds
 Time used in   CC part              :       0.01 seconds
 Time used in   Int. calc. & read    :       0.00 seconds
 Time used in   IO of vectors/I.M.   :       0.00 seconds
  

 REDUCED EIGENVALUES real part:

               Column   1
       1       0.41472320
       2       0.48993436
       3       0.51758869
       4       0.59226659
       5       0.63984317
       6       0.77118669
       7       0.92405389
       8       1.00406133
    ==== End of matrix output ====
  
 ROOT:  1 RESIDUAL TOT: 4.33722D-01
 ROOT:  2 RESIDUAL TOT: 4.37667D-01
 ROOT:  3 RESIDUAL TOT: 4.24807D-01
 ROOT:  4 RESIDUAL TOT: 4.24865D-01
 ROOT:  5 RESIDUAL TOT: 3.89379D-01
 ROOT:  6 RESIDUAL TOT: 3.90683D-01
 ROOT:  7 RESIDUAL TOT: 4.74023D-01
 ROOT:  8 RESIDUAL TOT: 4.89574D-01
      1       8         0.00     0.49E+00

 Lowest eigenvalues in this iteration: 

               Column   1
       1       0.41472320
       2       0.48993436
       3       0.51758869
       4       0.59226659
       5       0.63984317
       6       0.77118669
       7       0.92405389
       8       1.00406133
    ==== End of matrix output ====
 Dimension of the reduced space:    16
 --- TIME USED IN THIS MICRO ITERATION        0.09



 Time used in     CC_RHTR in total   :       0.01 seconds
 Time used in   CC part              :       0.01 seconds
 Time used in   Int. calc. & read    :       0.00 seconds
 Time used in   IO of vectors/I.M.   :       0.00 seconds
  


 Time used in     CC_RHTR in total   :       0.01 seconds
 Time used in   CC part              :       0.01 seconds
 Time used in   Int. calc. & read    :       0.00 seconds
 Time used in   IO of vectors/I.M.   :       0.00 seconds
  


 Time used in     CC_RHTR in total   :       0.01 seconds
 Time used in   CC part              :       0.01 seconds
 Time used in   Int. calc. & read    :       0.00 seconds
 Time used in   IO of vectors/I.M.   :       0.00 seconds
  


 Time used in     CC_RHTR in total   :       0.01 seconds
 Time used in   CC part              :       0.01 seconds
 Time used in   Int. calc. & read    :       0.00 seconds
 Time used in   IO of vectors/I.M.   :       0.00 seconds
  


 Time used in     CC_RHTR in total   :       0.01 seconds
 Time used in   CC part              :       0.01 seconds
 Time used in   Int. calc. & read    :       0.00 seconds
 Time used in   IO of vectors/I.M.   :       0.00 seconds
  


 Time used in     CC_RHTR in total   :       0.01 seconds
 Time used in   CC part              :       0.01 seconds
 Time used in   Int. calc. & read    :       0.00 seconds
 Time used in   IO of vectors/I.M.   :       0.00 seconds
  


 Time used in     CC_RHTR in total   :       0.01 seconds
 Time used in   CC part              :       0.01 seconds
 Time used in   Int. calc. & read    :       0.00 seconds
 Time used in   IO of vectors/I.M.   :       0.00 seconds
  


 Time used in     CC_RHTR in total   :       0.01 seconds
 Time used in   CC part              :       0.01 seconds
 Time used in   Int. calc. & read    :       0.00 seconds
 Time used in   IO of vectors/I.M.   :       0.00 seconds
  

 REDUCED EIGENVALUES real part:

               Column   1
       1       0.30002668
       2       0.37557154
       3       0.39821034
       4       0.47582187
       5       0.54746643
       6       0.66188485
       7       0.79624557
       8       0.86299743
    ==== End of matrix output ====
  
 ROOT:  1 RESIDUAL TOT: 6.53054D-02
 ROOT:  2 RESIDUAL TOT: 6.86257D-02
 ROOT:  3 RESIDUAL TOT: 8.47232D-02
 ROOT:  4 RESIDUAL TOT: 8.93189D-02
 ROOT:  5 RESIDUAL TOT: 7.50466D-02
 ROOT:  6 RESIDUAL TOT: 8.54101D-02
 ROOT:  7 RESIDUAL TOT: 8.98928D-02
 ROOT:  8 RESIDUAL TOT: 9.68284D-02
      2       8         0.00     0.97E-01

 Lowest eigenvalues in this iteration: 

               Column   1
       1       0.30002668
       2       0.37557154
       3       0.39821034
       4       0.47582187
       5       0.54746643
       6       0.66188485
       7       0.79624557
       8       0.86299743
    ==== End of matrix output ====
 Dimension of the reduced space:    24
 --- TIME USED IN THIS MICRO ITERATION        0.09



 Time used in     CC_RHTR in total   :       0.01 seconds
 Time used in   CC part              :       0.01 seconds
 Time used in   Int. calc. & read    :       0.00 seconds
 Time used in   IO of vectors/I.M.   :       0.00 seconds
  


 Time used in     CC_RHTR in total   :       0.01 seconds
 Time used in   CC part              :       0.01 seconds
 Time used in   Int. calc. & read    :       0.00 seconds
 Time used in   IO of vectors/I.M.   :       0.00 seconds
  


 Time used in     CC_RHTR in total   :       0.01 seconds
 Time used in   CC part              :       0.01 seconds
 Time used in   Int. calc. & read    :       0.00 seconds
 Time used in   IO of vectors/I.M.   :       0.00 seconds
  


 Time used in     CC_RHTR in total   :       0.01 seconds
 Time used in   CC part              :       0.01 seconds
 Time used in   Int. calc. & read    :       0.00 seconds
 Time used in   IO of vectors/I.M.   :       0.00 seconds
  


 Time used in     CC_RHTR in total   :       0.01 seconds
 Time used in   CC part              :       0.01 seconds
 Time used in   Int. calc. & read    :       0.00 seconds
 Time used in   IO of vectors/I.M.   :       0.00 seconds
  


 Time used in     CC_RHTR in total   :       0.01 seconds
 Time used in   CC part              :       0.01 seconds
 Time used in   Int. calc. & read    :       0.00 seconds
 Time used in   IO of vectors/I.M.   :       0.00 seconds
  


 Time used in     CC_RHTR in total   :       0.01 seconds
 Time used in   CC part              :       0.01 seconds
 Time used in   Int. calc. & read    :       0.00 seconds
 Time used in   IO of vectors/I.M.   :       0.00 seconds
  


 Time used in     CC_RHTR in total   :       0.01 seconds
 Time used in   CC part              :       0.01 seconds
 Time used in   Int. calc. & read    :       0.00 seconds
 Time used in   IO of vectors/I.M.   :       0.00 seconds
  

 REDUCED EIGENVALUES real part:

               Column   1
       1       0.30028976
       2       0.37570266
       3       0.39777626
       4       0.47453154
       5       0.54680615
       6       0.65967709
       7       0.79507930
       8       0.86171248
    ==== End of matrix output ====
  
 ROOT:  1 RESIDUAL TOT: 1.53813D-02
 ROOT:  2 RESIDUAL TOT: 1.67309D-02
 ROOT:  3 RESIDUAL TOT: 2.92659D-02
 ROOT:  4 RESIDUAL TOT: 3.00537D-02
 ROOT:  5 RESIDUAL TOT: 2.26634D-02
 ROOT:  6 RESIDUAL TOT: 2.89159D-02
 ROOT:  7 RESIDUAL TOT: 2.48150D-02
 ROOT:  8 RESIDUAL TOT: 2.80225D-02
      3       8         0.00     0.30E-01

 Lowest eigenvalues in this iteration: 

               Column   1
       1       0.30028976
       2       0.37570266
       3       0.39777626
       4       0.47453154
       5       0.54680615
       6       0.65967709
       7       0.79507930
       8       0.86171248
    ==== End of matrix output ====
 Dimension of the reduced space:    32
 --- TIME USED IN THIS MICRO ITERATION        0.09



 Time used in     CC_RHTR in total   :       0.01 seconds
 Time used in   CC part              :       0.01 seconds
 Time used in   Int. calc. & read    :       0.00 seconds
 Time used in   IO of vectors/I.M.   :       0.00 seconds
  


 Time used in     CC_RHTR in total   :       0.01 seconds
 Time used in   CC part              :       0.01 seconds
 Time used in   Int. calc. & read    :       0.00 seconds
 Time used in   IO of vectors/I.M.   :       0.00 seconds
  


 Time used in     CC_RHTR in total   :       0.01 seconds
 Time used in   CC part              :       0.01 seconds
 Time used in   Int. calc. & read    :       0.00 seconds
 Time used in   IO of vectors/I.M.   :       0.00 seconds
  


 Time used in     CC_RHTR in total   :       0.01 seconds
 Time used in   CC part              :       0.01 seconds
 Time used in   Int. calc. & read    :       0.00 seconds
 Time used in   IO of vectors/I.M.   :       0.00 seconds
  


 Time used in     CC_RHTR in total   :       0.01 seconds
 Time used in   CC part              :       0.01 seconds
 Time used in   Int. calc. & read    :       0.00 seconds
 Time used in   IO of vectors/I.M.   :       0.00 seconds
  


 Time used in     CC_RHTR in total   :       0.01 seconds
 Time used in   CC part              :       0.01 seconds
 Time used in   Int. calc. & read    :       0.00 seconds
 Time used in   IO of vectors/I.M.   :       0.00 seconds
  


 Time used in     CC_RHTR in total   :       0.01 seconds
 Time used in   CC part              :       0.01 seconds
 Time used in   Int. calc. & read    :       0.00 seconds
 Time used in   IO of vectors/I.M.   :       0.00 seconds
  


 Time used in     CC_RHTR in total   :       0.01 seconds
 Time used in   CC part              :       0.01 seconds
 Time used in   Int. calc. & read    :       0.00 seconds
 Time used in   IO of vectors/I.M.   :       0.00 seconds
  

 REDUCED EIGENVALUES real part:

               Column   1
       1       0.30090374
       2       0.37628024
       3       0.39808227
       4       0.47521462
       5       0.54735449
       6       0.66025315
       7       0.79558027
       8       0.86204711
    ==== End of matrix output ====
  
 ROOT:  1 RESIDUAL TOT: 3.49019D-03
 ROOT:  2 RESIDUAL TOT: 3.44425D-03
 ROOT:  3 RESIDUAL TOT: 8.24397D-03
 ROOT:  4 RESIDUAL TOT: 9.19711D-03
 ROOT:  5 RESIDUAL TOT: 7.36266D-03
 ROOT:  6 RESIDUAL TOT: 1.06189D-02
 ROOT:  7 RESIDUAL TOT: 7.37195D-03
 ROOT:  8 RESIDUAL TOT: 9.31434D-03
      4       8         0.00     0.11E-01

 Lowest eigenvalues in this iteration: 

               Column   1
       1       0.30090374
       2       0.37628024
       3       0.39808227
       4       0.47521462
       5       0.54735449
       6       0.66025315
       7       0.79558027
       8       0.86204711
    ==== End of matrix output ====
 Dimension of the reduced space:    40
 --- TIME USED IN THIS MICRO ITERATION        0.09



 Time used in     CC_RHTR in total   :       0.01 seconds
 Time used in   CC part              :       0.01 seconds
 Time used in   Int. calc. & read    :       0.00 seconds
 Time used in   IO of vectors/I.M.   :       0.00 seconds
  


 Time used in     CC_RHTR in total   :       0.01 seconds
 Time used in   CC part              :       0.01 seconds
 Time used in   Int. calc. & read    :       0.00 seconds
 Time used in   IO of vectors/I.M.   :       0.00 seconds
  


 Time used in     CC_RHTR in total   :       0.01 seconds
 Time used in   CC part              :       0.01 seconds
 Time used in   Int. calc. & read    :       0.00 seconds
 Time used in   IO of vectors/I.M.   :       0.00 seconds
  


 Time used in     CC_RHTR in total   :       0.01 seconds
 Time used in   CC part              :       0.01 seconds
 Time used in   Int. calc. & read    :       0.00 seconds
 Time used in   IO of vectors/I.M.   :       0.00 seconds
  


 Time used in     CC_RHTR in total   :       0.01 seconds
 Time used in   CC part              :       0.01 seconds
 Time used in   Int. calc. & read    :       0.00 seconds
 Time used in   IO of vectors/I.M.   :       0.00 seconds
  


 Time used in     CC_RHTR in total   :       0.01 seconds
 Time used in   CC part              :       0.01 seconds
 Time used in   Int. calc. & read    :       0.00 seconds
 Time used in   IO of vectors/I.M.   :       0.00 seconds
  


 Time used in     CC_RHTR in total   :       0.01 seconds
 Time used in   CC part              :       0.01 seconds
 Time used in   Int. calc. & read    :       0.00 seconds
 Time used in   IO of vectors/I.M.   :       0.00 seconds
  


 Time used in     CC_RHTR in total   :       0.01 seconds
 Time used in   CC part              :       0.01 seconds
 Time used in   Int. calc. & read    :       0.00 seconds
 Time used in   IO of vectors/I.M.   :       0.00 seconds
  

 REDUCED EIGENVALUES real part:

               Column   1
       1       0.30091479
       2       0.37626652
       3       0.39800491
       4       0.47506119
       5       0.54719053
       6       0.66005565
       7       0.79548706
       8       0.86188638
    ==== End of matrix output ====
  
 ROOT:  1 RESIDUAL TOT: 7.30041D-04
 ROOT:  2 RESIDUAL TOT: 6.58158D-04
 ROOT:  3 RESIDUAL TOT: 1.75963D-03
 ROOT:  4 RESIDUAL TOT: 2.54025D-03
 ROOT:  5 RESIDUAL TOT: 2.04242D-03
 ROOT:  6 RESIDUAL TOT: 3.46320D-03
 ROOT:  7 RESIDUAL TOT: 2.68219D-03
 ROOT:  8 RESIDUAL TOT: 3.11352D-03
      5       8         0.00     0.35E-02

 Lowest eigenvalues in this iteration: 

               Column   1
       1       0.30091479
       2       0.37626652
       3       0.39800491
       4       0.47506119
       5       0.54719053
       6       0.66005565
       7       0.79548706
       8       0.86188638
    ==== End of matrix output ====
 Dimension of the reduced space:    48
 --- TIME USED IN THIS MICRO ITERATION        0.09



 Time used in     CC_RHTR in total   :       0.01 seconds
 Time used in   CC part              :       0.01 seconds
 Time used in   Int. calc. & read    :       0.00 seconds
 Time used in   IO of vectors/I.M.   :       0.00 seconds
  


 Time used in     CC_RHTR in total   :       0.01 seconds
 Time used in   CC part              :       0.01 seconds
 Time used in   Int. calc. & read    :       0.00 seconds
 Time used in   IO of vectors/I.M.   :       0.00 seconds
  


 Time used in     CC_RHTR in total   :       0.01 seconds
 Time used in   CC part              :       0.01 seconds
 Time used in   Int. calc. & read    :       0.00 seconds
 Time used in   IO of vectors/I.M.   :       0.00 seconds
  


 Time used in     CC_RHTR in total   :       0.01 seconds
 Time used in   CC part              :       0.01 seconds
 Time used in   Int. calc. & read    :       0.00 seconds
 Time used in   IO of vectors/I.M.   :       0.00 seconds
  


 Time used in     CC_RHTR in total   :       0.01 seconds
 Time used in   CC part              :       0.01 seconds
 Time used in   Int. calc. & read    :       0.00 seconds
 Time used in   IO of vectors/I.M.   :       0.00 seconds
  


 Time used in     CC_RHTR in total   :       0.01 seconds
 Time used in   CC part              :       0.01 seconds
 Time used in   Int. calc. & read    :       0.00 seconds
 Time used in   IO of vectors/I.M.   :       0.00 seconds
  


 Time used in     CC_RHTR in total   :       0.01 seconds
 Time used in   CC part              :       0.01 seconds
 Time used in   Int. calc. & read    :       0.00 seconds
 Time used in   IO of vectors/I.M.   :       0.00 seconds
  


 Time used in     CC_RHTR in total   :       0.01 seconds
 Time used in   CC part              :       0.01 seconds
 Time used in   Int. calc. & read    :       0.00 seconds
 Time used in   IO of vectors/I.M.   :       0.00 seconds
  

 REDUCED EIGENVALUES real part:

               Column   1
       1       0.30091053
       2       0.37626082
       3       0.39794766
       4       0.47500525
       5       0.54714613
       6       0.65995024
       7       0.79546014
       8       0.86183611
    ==== End of matrix output ====
  
 ROOT:  1 RESIDUAL TOT: 1.61593D-04
 ROOT:  2 RESIDUAL TOT: 1.68175D-04
 ROOT:  3 RESIDUAL TOT: 4.73686D-04
 ROOT:  4 RESIDUAL TOT: 6.84933D-04
 ROOT:  5 RESIDUAL TOT: 6.12502D-04
 ROOT:  6 RESIDUAL TOT: 1.23624D-03
 ROOT:  7 RESIDUAL TOT: 9.09435D-04
 ROOT:  8 RESIDUAL TOT: 8.63705D-04
      6       8         0.00     0.12E-02

 Lowest eigenvalues in this iteration: 

               Column   1
       1       0.30091053
       2       0.37626082
       3       0.39794766
       4       0.47500525
       5       0.54714613
       6       0.65995024
       7       0.79546014
       8       0.86183611
    ==== End of matrix output ====
 Dimension of the reduced space:    56
 --- TIME USED IN THIS MICRO ITERATION        0.09



 Time used in     CC_RHTR in total   :       0.01 seconds
 Time used in   CC part              :       0.01 seconds
 Time used in   Int. calc. & read    :       0.00 seconds
 Time used in   IO of vectors/I.M.   :       0.00 seconds
  


 Time used in     CC_RHTR in total   :       0.01 seconds
 Time used in   CC part              :       0.01 seconds
 Time used in   Int. calc. & read    :       0.00 seconds
 Time used in   IO of vectors/I.M.   :       0.00 seconds
  


 Time used in     CC_RHTR in total   :       0.01 seconds
 Time used in   CC part              :       0.01 seconds
 Time used in   Int. calc. & read    :       0.00 seconds
 Time used in   IO of vectors/I.M.   :       0.00 seconds
  


 Time used in     CC_RHTR in total   :       0.01 seconds
 Time used in   CC part              :       0.01 seconds
 Time used in   Int. calc. & read    :       0.00 seconds
 Time used in   IO of vectors/I.M.   :       0.00 seconds
  


 Time used in     CC_RHTR in total   :       0.01 seconds
 Time used in   CC part              :       0.01 seconds
 Time used in   Int. calc. & read    :       0.00 seconds
 Time used in   IO of vectors/I.M.   :       0.00 seconds
  


 Time used in     CC_RHTR in total   :       0.01 seconds
 Time used in   CC part              :       0.01 seconds
 Time used in   Int. calc. & read    :       0.00 seconds
[...]
     +-----------+-----------------+-----------------+---------------------+
       oscillator strength (length gauge)   :      0.00000061


     Transition from excited state:
     number, multiplicity, symmetry :    6  ^1A  
     to state:
     number, multiplicity, symmetry :    1  ^1A  
     transition frequency :   0.3590572517 a.u.     9.77044 e.V.     78804.0 cm^-1

     +-----------+-----------------+-----------------+---------------------+
     | operator  |   left moment   |  right moment   | transition strength |
     +-----------+-----------------+-----------------+---------------------+
     | XDIPLEN   |     -0.06502022 |     -0.07754053 |       0.00504170    |
     | YDIPLEN   |      0.00000000 |     -0.00000000 |      -0.00000000    |
     | ZDIPLEN   |      0.00000000 |      0.00000000 |       0.00000000    |
     +-----------+-----------------+-----------------+---------------------+
       oscillator strength (length gauge)   :      0.00120684


     Transition from excited state:
     number, multiplicity, symmetry :    6  ^1A  
     to state:
     number, multiplicity, symmetry :    2  ^1A  
     transition frequency :   0.2837054054 a.u.     7.72002 e.V.     62266.1 cm^-1

     +-----------+-----------------+-----------------+---------------------+
     | operator  |   left moment   |  right moment   | transition strength |
     +-----------+-----------------+-----------------+---------------------+
     | XDIPLEN   |     -0.00000000 |     -0.00000000 |       0.00000000    |
     | YDIPLEN   |     -0.00000000 |      0.00000000 |      -0.00000000    |
     | ZDIPLEN   |     -0.00000000 |      0.00000000 |      -0.00000000    |
     +-----------+-----------------+-----------------+---------------------+
       oscillator strength (length gauge)   :     -0.00000000


     Transition from excited state:
     number, multiplicity, symmetry :    6  ^1A  
     to state:
     number, multiplicity, symmetry :    3  ^1A  
     transition frequency :   0.2620153173 a.u.     7.12980 e.V.     57505.7 cm^-1

     +-----------+-----------------+-----------------+---------------------+
     | operator  |   left moment   |  right moment   | transition strength |
     +-----------+-----------------+-----------------+---------------------+
     | XDIPLEN   |      0.00000000 |     -0.00000000 |      -0.00000000    |
     | YDIPLEN   |      0.00000000 |      0.00000000 |       0.00000000    |
     | ZDIPLEN   |     -0.05198796 |     -0.06013069 |       0.00312607    |
     +-----------+-----------------+-----------------+---------------------+
       oscillator strength (length gauge)   :      0.00054605


     Transition from excited state:
     number, multiplicity, symmetry :    6  ^1A  
     to state:
     number, multiplicity, symmetry :    4  ^1A  
     transition frequency :   0.1849535847 a.u.     5.03284 e.V.     40592.6 cm^-1

     +-----------+-----------------+-----------------+---------------------+
     | operator  |   left moment   |  right moment   | transition strength |
     +-----------+-----------------+-----------------+---------------------+
     | XDIPLEN   |      0.00000000 |      0.00000000 |       0.00000000    |
     | YDIPLEN   |      0.06231914 |      0.07974173 |       0.00496944    |
     | ZDIPLEN   |      0.00000000 |      0.00000000 |       0.00000000    |
     +-----------+-----------------+-----------------+---------------------+
       oscillator strength (length gauge)   :      0.00061274


     Transition from excited state:
     number, multiplicity, symmetry :    6  ^1A  
     to state:
     number, multiplicity, symmetry :    5  ^1A  
     transition frequency :   0.1128221045 a.u.     3.07005 e.V.     24761.6 cm^-1

     +-----------+-----------------+-----------------+---------------------+
     | operator  |   left moment   |  right moment   | transition strength |
     +-----------+-----------------+-----------------+---------------------+
     | XDIPLEN   |     -0.00000000 |      0.00000000 |      -0.00000000    |
     | YDIPLEN   |     -1.71989516 |     -1.72106624 |       2.96005350    |
     | ZDIPLEN   |     -0.00000000 |     -0.00000000 |       0.00000000    |
     +-----------+-----------------+-----------------+---------------------+
       oscillator strength (length gauge)   :      0.22263964


     Transition from excited state:
     number, multiplicity, symmetry :    7  ^1A  
     to state:
     number, multiplicity, symmetry :    1  ^1A  
     transition frequency :   0.4945440002 a.u.    13.45723 e.V.    108539.9 cm^-1

     +-----------+-----------------+-----------------+---------------------+
     | operator  |   left moment   |  right moment   | transition strength |
     +-----------+-----------------+-----------------+---------------------+
     | XDIPLEN   |     -0.00000000 |     -0.00000000 |       0.00000000    |
     | YDIPLEN   |      0.74237862 |      0.73939816 |       0.54891338    |
     | ZDIPLEN   |     -0.00000000 |     -0.00000000 |       0.00000000    |
     +-----------+-----------------+-----------------+---------------------+
       oscillator strength (length gauge)   :      0.18097455


     Transition from excited state:
     number, multiplicity, symmetry :    7  ^1A  
     to state:
     number, multiplicity, symmetry :    2  ^1A  
     transition frequency :   0.4191921539 a.u.    11.40680 e.V.     92002.0 cm^-1

     +-----------+-----------------+-----------------+---------------------+
     | operator  |   left moment   |  right moment   | transition strength |
     +-----------+-----------------+-----------------+---------------------+
     | XDIPLEN   |      0.00000000 |     -0.00000000 |      -0.00000000    |
     | YDIPLEN   |     -0.00000000 |      0.00000000 |      -0.00000000    |
     | ZDIPLEN   |     -0.16122178 |     -0.17458500 |       0.02814691    |
     +-----------+-----------------+-----------------+---------------------+
       oscillator strength (length gauge)   :      0.00786597


     Transition from excited state:
     number, multiplicity, symmetry :    7  ^1A  
     to state:
     number, multiplicity, symmetry :    3  ^1A  
     transition frequency :   0.3975020658 a.u.    10.81658 e.V.     87241.6 cm^-1

     +-----------+-----------------+-----------------+---------------------+
     | operator  |   left moment   |  right moment   | transition strength |
     +-----------+-----------------+-----------------+---------------------+
     | XDIPLEN   |     -0.00000000 |      0.00000000 |      -0.00000000    |
     | YDIPLEN   |     -0.00000000 |      0.00000000 |      -0.00000000    |
     | ZDIPLEN   |     -0.00000000 |     -0.00000000 |       0.00000000    |
     +-----------+-----------------+-----------------+---------------------+
       oscillator strength (length gauge)   :     -0.00000000


     Transition from excited state:
     number, multiplicity, symmetry :    7  ^1A  
     to state:
     number, multiplicity, symmetry :    4  ^1A  
     transition frequency :   0.3204403332 a.u.     8.71963 e.V.     70328.5 cm^-1

     +-----------+-----------------+-----------------+---------------------+
     | operator  |   left moment   |  right moment   | transition strength |
     +-----------+-----------------+-----------------+---------------------+
     | XDIPLEN   |     -0.00411453 |     -0.00289979 |       0.00001193    |
     | YDIPLEN   |      0.00000000 |     -0.00000000 |      -0.00000000    |
     | ZDIPLEN   |      0.00000000 |      0.00000000 |       0.00000000    |
     +-----------+-----------------+-----------------+---------------------+
       oscillator strength (length gauge)   :      0.00000255


     Transition from excited state:
     number, multiplicity, symmetry :    7  ^1A  
     to state:
     number, multiplicity, symmetry :    5  ^1A  
     transition frequency :   0.2483088530 a.u.     6.75683 e.V.     54497.5 cm^-1

     +-----------+-----------------+-----------------+---------------------+
     | operator  |   left moment   |  right moment   | transition strength |
     +-----------+-----------------+-----------------+---------------------+
     | XDIPLEN   |      0.00109660 |      0.00235886 |       0.00000259    |
     | YDIPLEN   |      0.00000000 |     -0.00000000 |      -0.00000000    |
     | ZDIPLEN   |      0.00000000 |     -0.00000000 |      -0.00000000    |
     +-----------+-----------------+-----------------+---------------------+
       oscillator strength (length gauge)   :      0.00000043


     Transition from excited state:
     number, multiplicity, symmetry :    7  ^1A  
     to state:
     number, multiplicity, symmetry :    6  ^1A  
     transition frequency :   0.1354867485 a.u.     3.68678 e.V.     29735.9 cm^-1

     +-----------+-----------------+-----------------+---------------------+
     | operator  |   left moment   |  right moment   | transition strength |
     +-----------+-----------------+-----------------+---------------------+
     | XDIPLEN   |     -0.00000000 |      0.00000000 |      -0.00000000    |
     | YDIPLEN   |     -0.00000000 |      0.00000000 |      -0.00000000    |
     | ZDIPLEN   |      0.00000000 |      0.00000000 |       0.00000000    |
     +-----------+-----------------+-----------------+---------------------+
       oscillator strength (length gauge)   :     -0.00000000


     Transition from excited state:
     number, multiplicity, symmetry :    8  ^1A  
     to state:
     number, multiplicity, symmetry :    1  ^1A  
     transition frequency :   0.5609188707 a.u.    15.26338 e.V.    123107.5 cm^-1

     +-----------+-----------------+-----------------+---------------------+
     | operator  |   left moment   |  right moment   | transition strength |
     +-----------+-----------------+-----------------+---------------------+
     | XDIPLEN   |     -0.00000000 |      0.00000000 |      -0.00000000    |
     | YDIPLEN   |     -0.00000000 |     -0.00000000 |       0.00000000    |
     | ZDIPLEN   |      0.19562385 |      0.19411286 |       0.03797311    |
     +-----------+-----------------+-----------------+---------------------+
       oscillator strength (length gauge)   :      0.01419989


     Transition from excited state:
     number, multiplicity, symmetry :    8  ^1A  
     to state:
     number, multiplicity, symmetry :    2  ^1A  
     transition frequency :   0.4855670243 a.u.    13.21295 e.V.    106569.6 cm^-1

     +-----------+-----------------+-----------------+---------------------+
     | operator  |   left moment   |  right moment   | transition strength |
     +-----------+-----------------+-----------------+---------------------+
     | XDIPLEN   |     -0.00000000 |     -0.00000000 |       0.00000000    |
     | YDIPLEN   |     -0.41825122 |     -0.42340166 |       0.17708826    |
     | ZDIPLEN   |      0.00000000 |      0.00000000 |       0.00000000    |
     +-----------+-----------------+-----------------+---------------------+
       oscillator strength (length gauge)   :      0.05732548


     Transition from excited state:
     number, multiplicity, symmetry :    8  ^1A  
     to state:
     number, multiplicity, symmetry :    3  ^1A  
     transition frequency :   0.4638769362 a.u.    12.62273 e.V.    101809.2 cm^-1

     +-----------+-----------------+-----------------+---------------------+
     | operator  |   left moment   |  right moment   | transition strength |
     +-----------+-----------------+-----------------+---------------------+
     | XDIPLEN   |     -0.03936215 |     -0.03017346 |       0.00118769    |
     | YDIPLEN   |     -0.00000000 |     -0.00000000 |       0.00000000    |
     | ZDIPLEN   |     -0.00000000 |      0.00000000 |      -0.00000000    |
     +-----------+-----------------+-----------------+---------------------+
       oscillator strength (length gauge)   :      0.00036730


     Transition from excited state:
     number, multiplicity, symmetry :    8  ^1A  
     to state:
     number, multiplicity, symmetry :    4  ^1A  
     transition frequency :   0.3868152037 a.u.    10.52578 e.V.     84896.1 cm^-1

     +-----------+-----------------+-----------------+---------------------+
     | operator  |   left moment   |  right moment   | transition strength |
     +-----------+-----------------+-----------------+---------------------+
     | XDIPLEN   |      0.00000000 |      0.00000000 |       0.00000000    |
     | YDIPLEN   |     -0.00000000 |      0.00000000 |      -0.00000000    |
     | ZDIPLEN   |      0.00000000 |      0.00000000 |       0.00000000    |
     +-----------+-----------------+-----------------+---------------------+
       oscillator strength (length gauge)   :     -0.00000000


     Transition from excited state:
     number, multiplicity, symmetry :    8  ^1A  
     to state:
     number, multiplicity, symmetry :    5  ^1A  
     transition frequency :   0.3146837235 a.u.     8.56298 e.V.     69065.1 cm^-1

     +-----------+-----------------+-----------------+---------------------+
     | operator  |   left moment   |  right moment   | transition strength |
     +-----------+-----------------+-----------------+---------------------+
     | XDIPLEN   |      0.00000000 |     -0.00000000 |      -0.00000000    |
     | YDIPLEN   |      0.00000000 |     -0.00000000 |      -0.00000000    |
     | ZDIPLEN   |     -0.00000000 |      0.00000000 |      -0.00000000    |
     +-----------+-----------------+-----------------+---------------------+
       oscillator strength (length gauge)   :     -0.00000000


     Transition from excited state:
     number, multiplicity, symmetry :    8  ^1A  
     to state:
     number, multiplicity, symmetry :    6  ^1A  
     transition frequency :   0.2018616189 a.u.     5.49293 e.V.     44303.5 cm^-1

     +-----------+-----------------+-----------------+---------------------+
     | operator  |   left moment   |  right moment   | transition strength |
     +-----------+-----------------+-----------------+---------------------+
     | XDIPLEN   |     -0.07397889 |     -0.05972018 |       0.00441803    |
     | YDIPLEN   |     -0.00000000 |      0.00000000 |      -0.00000000    |
     | ZDIPLEN   |     -0.00000000 |      0.00000000 |      -0.00000000    |
     +-----------+-----------------+-----------------+---------------------+
       oscillator strength (length gauge)   :      0.00059455


     Transition from excited state:
     number, multiplicity, symmetry :    8  ^1A  
     to state:
     number, multiplicity, symmetry :    7  ^1A  
     transition frequency :   0.0663748704 a.u.     1.80615 e.V.     14567.6 cm^-1

     +-----------+-----------------+-----------------+---------------------+
     | operator  |   left moment   |  right moment   | transition strength |
     +-----------+-----------------+-----------------+---------------------+
     | XDIPLEN   |     -0.00000000 |     -0.00000000 |       0.00000000    |
     | YDIPLEN   |      1.05903404 |      1.05674571 |       1.11912969    |
     | ZDIPLEN   |      0.00000000 |     -0.00000000 |      -0.00000000    |
     +-----------+-----------------+-----------------+---------------------+
       oscillator strength (length gauge)   :      0.04952139
  

 *******************************************************************************
 *******************************************************************************
 *                                                                             *
 *                                                                             *
 *                   SUMMARY OF COUPLED CLUSTER CALCULATION                    *
 *                                                                             *
 *                                                                             *
 *******************************************************************************
 *******************************************************************************

                                                                                
                                                                                
            Total SCF   energy:                   -76.0268081652                
            Total MP2   energy:                   -76.2307563423                
            Total CCSD  energy:                   -76.2400798817                
                                                                                
                                                                                
 +=============================================================================+
 |  sym. | Exci.  |        CCSD       Excitation energies            | ||T1||  |
 |(spin, |        +------------------------------------------------------------+
 | spat) |        |     Hartree    |       eV.      |     cm-1       |    %    |
 +=============================================================================+
 | ^1A   |    1   |     0.3009105  |       8.18819  |     66042.222  |  95.97  |
 | ^1A   |    2   |     0.3762624  |      10.23862  |     82580.041  |  96.14  |
 | ^1A   |    3   |     0.3979524  |      10.82884  |     87340.465  |  96.21  |
 | ^1A   |    4   |     0.4750142  |      12.92579  |    104253.560  |  95.99  |
 | ^1A   |    5   |     0.5471457  |      14.88859  |    120084.590  |  96.72  |
 | ^1A   |    6   |     0.6599678  |      17.95864  |    144846.179  |  97.10  |
 | ^1A   |    7   |     0.7954545  |      21.64542  |    174582.083  |  94.81  |
 | ^1A   |    8   |     0.8618294  |      23.45157  |    189149.683  |  94.21  |
 +=============================================================================+
                                                                                
                                                                                
     Total energies in Hartree:                                                 
             1 ^1A        -75.9391693738                                        
             2 ^1A        -75.8638175275                                        
             3 ^1A        -75.8421274394                                        
             4 ^1A        -75.7650657068                                        
             5 ^1A        -75.6929342266                                        
             6 ^1A        -75.5801121221                                        
             7 ^1A        -75.4446253736                                        
             8 ^1A        -75.3782505032                                        

  1 a.u. =        27.21138 eV.  
  1 a.u. =    219474.62934 cm-1.
  

 *******************************************************************************
 *******************************************************************************
 *                                                                             *
 *                                                                             *
 *                      END OF COUPLED CLUSTER CALCULATION                     *
 *                                                                             *
 *                                                                             *
 *******************************************************************************
 *******************************************************************************


 CPU and wall time for CC :       8.176      10.040

 
     Date and time (Linux)  : Thu Nov  9 16:56:37 2017
     Host name              : kemi-czc7084xz.win.dtu.dk               


                      .-------------------------------------.
                      | End of Coupled Cluster Section (CC) |
                      `-------------------------------------'

  Total CPU  time used in DALTON:   8.24 seconds
  Total wall time used in DALTON:  10.11 seconds

 
     Date and time (Linux)  : Thu Nov  9 16:56:37 2017
     Host name              : kemi-czc7084xz.win.dtu.dk               
