

     ************************************************************************
     *************** Dalton - An Electronic Structure Program ***************
     ************************************************************************

    This is output from DALTON (Release Dalton2013 patch 0)
   ----------------------------------------------------------------------------
    NOTE:
     
    Dalton is an experimental code for the evaluation of molecular
    properties using (MC)SCF, DFT, CI, and CC wave functions.
    The authors accept no responsibility for the performance of
    the code or for the correctness of the results.
     
    The code (in whole or part) is provided under a licence and
    is not to be reproduced for further distribution without
    the written permission of the authors or their representatives.
     
    See the home page "http://daltonprogram.org" for further information.
     
    If results obtained with this code are published,
    the appropriate citations would be both of:
     
       K. Aidas, C. Angeli, K. L. Bak, V. Bakken, R. Bast,
       L. Boman, O. Christiansen, R. Cimiraglia, S. Coriani,
       P. Dahle, E. K. Dalskov, U. Ekstroem, T. Enevoldsen,
       J. J. Eriksen, P. Ettenhuber, B. Fernandez, L. Ferrighi,
       H. Fliegl, L. Frediani, K. Hald, A. Halkier, C. Haettig,
       H. Heiberg, T. Helgaker, A. C. Hennum, H. Hettema,
       E. Hjertenaes, S. Hoest, I.-M. Hoeyvik, M. F. Iozzi,
       B. Jansik, H. J. Aa. Jensen, D. Jonsson, P. Joergensen,
       J. Kauczor, S. Kirpekar, T. Kjaergaard, W. Klopper,
       S. Knecht, R. Kobayashi, H. Koch, J. Kongsted, A. Krapp,
       K. Kristensen, A. Ligabue, O. B. Lutnaes, J. I. Melo,
       K. V. Mikkelsen, R. H. Myhre, C. Neiss, C. B. Nielsen,
       P. Norman, J. Olsen, J. M. H. Olsen, A. Osted,
       M. J. Packer, F. Pawlowski, T. B. Pedersen, P. F. Provasi,
       S. Reine, Z. Rinkevicius, T. A. Ruden, K. Ruud, V. Rybkin,
       P. Salek, C. C. M. Samson, A. Sanchez de Meras, T. Saue,
       S. P. A. Sauer, B. Schimmelpfennig, K. Sneskov,
       A. H. Steindal, K. O. Sylvester-Hvid, P. R. Taylor,
       A. M. Teale, E. I. Tellgren, D. P. Tew, A. J. Thorvaldsen,
       L. Thoegersen, O. Vahtras, M. A. Watson, D. J. D. Wilson,
       M. Ziolkowski and H. Agren.
       The Dalton quantum chemistry program system.
       WIREs Comput. Mol. Sci. 2013. doi: 10.1002/wcms.1172
    
    and
    
       Dalton, a Molecular Electronic Structure Program,
       Release DALTON2013.0 (2013), see http://daltonprogram.org
   ----------------------------------------------------------------------------

    Authors in alphabetical order (major contribution(s) in parenthesis):

  Kestutis Aidas,           Vilnius University,           Lithuania   (QM/MM)
  Celestino Angeli,         University of Ferrara,        Italy       (NEVPT2)
  Keld L. Bak,              UNI-C,                        Denmark     (AOSOPPA, non-adiabatic coupling, magnetic properties)
  Vebjoern Bakken,          University of Oslo,           Norway      (DALTON; geometry optimizer, symmetry detection)
  Radovan Bast,             KTH Stockholm                 Sweden      (DALTON installation and execution frameworks)
  Linus Boman,              NTNU,                         Norway      (Cholesky decomposition and subsystems)
  Ove Christiansen,         Aarhus University,            Denmark     (CC module)
  Renzo Cimiraglia,         University of Ferrara,        Italy       (NEVPT2)
  Sonia Coriani,            University of Trieste,        Italy       (CC module, MCD in RESPONS)
  Paal Dahle,               University of Oslo,           Norway      (Parallelization)
  Erik K. Dalskov,          UNI-C,                        Denmark     (SOPPA)
  Thomas Enevoldsen,        Univ. of Southern Denmark,    Denmark     (SOPPA)
  Janus J. Eriksen,         Aarhus University,            Denmark     (PE-MP2/SOPPA, TDA)
  Berta Fernandez,          U. of Santiago de Compostela, Spain       (doublet spin, ESR in RESPONS)
  Lara Ferrighi,            Aarhus University,            Denmark     (PCM Cubic response)
  Heike Fliegl,             University of Oslo,           Norway      (CCSD(R12))
  Luca Frediani,            UiT The Arctic U. of Norway,  Norway      (PCM)
  Bin Gao,                  UiT The Arctic U. of Norway,  Norway      (Gen1Int library)
  Christof Haettig,         Ruhr-University Bochum,       Germany     (CC module)
  Kasper Hald,              Aarhus University,            Denmark     (CC module)
  Asger Halkier,            Aarhus University,            Denmark     (CC module)
  Hanne Heiberg,            University of Oslo,           Norway      (geometry analysis, selected one-electron integrals)
  Trygve Helgaker,          University of Oslo,           Norway      (DALTON; ABACUS, ERI, DFT modules, London, and much more)
  Alf Christian Hennum,     University of Oslo,           Norway      (Parity violation)
  Hinne Hettema,            University of Auckland,       New Zealand (quadratic response in RESPONS; SIRIUS supersymmetry)
  Eirik Hjertenaes,         NTNU,                         Norway      (Cholesky decomposition)
  Maria Francesca Iozzi,    University of Oslo,           Norway      (RPA)
  Brano Jansik              Technical Univ. of Ostrava    Czech Rep.  (DFT cubic response)
  Hans Joergen Aa. Jensen,  Univ. of Southern Denmark,    Denmark     (DALTON; SIRIUS, RESPONS, ABACUS modules, London, and much more)
  Dan Jonsson,              UiT The Arctic U. of Norway,  Norway      (cubic response in RESPONS module)
  Poul Joergensen,          Aarhus University,            Denmark     (RESPONS, ABACUS, and CC modules)
  Joanna Kauczor,           Linkoeping University,        Sweden      (Complex polarization propagator (CPP) module)
  Sheela Kirpekar,          Univ. of Southern Denmark,    Denmark     (Mass-velocity & Darwin integrals)
  Wim Klopper,              KIT Karlsruhe,                Germany     (R12 code in CC, SIRIUS, and ABACUS modules)
  Stefan Knecht,            ETH Zurich,                   Switzerland (Parallel CI and MCSCF)
  Rika Kobayashi,           Australian National Univ.,    Australia   (DIIS in CC, London in MCSCF)
  Henrik Koch,              NTNU,                         Norway      (CC module, Cholesky decomposition)
  Jacob Kongsted,           Univ. of Southern Denmark,    Denmark     (Polarizable embedding, QM/MM)
  Andrea Ligabue,           University of Modena,         Italy       (CTOCD, AOSOPPA)
  Ola B. Lutnaes,           University of Oslo,           Norway      (DFT Hessian)
  Juan I. Melo,             University of Buenos Aires,   Argentina   (LRESC, Relativistic Effects on NMR Shieldings)
  Kurt V. Mikkelsen,        University of Copenhagen,     Denmark     (MC-SCRF and QM/MM)
  Rolf H. Myhre,            NTNU,                         Norway      (Cholesky, subsystems and ECC2)
  Christian Neiss,          Univ. Erlangen-Nuernberg,     Germany     (CCSD(R12))
  Christian B. Nielsen,     University of Copenhagen,     Denmark     (QM/MM)
  Patrick Norman,           Linkoeping University,        Sweden      (Cubic response and complex response in RESPONS)
  Jeppe Olsen,              Aarhus University,            Denmark     (SIRIUS CI/density modules)
  Jogvan Magnus H. Olsen,   Univ. of Southern Denmark,    Denmark     (Polarizable embedding, PE library, QM/MM)
  Anders Osted,             Copenhagen University,        Denmark     (QM/MM)
  Martin J. Packer,         University of Sheffield,      UK          (SOPPA)
  Filip Pawlowski,          Kazimierz Wielki University   Poland      (CC3)
  Thomas B. Pedersen,       University of Oslo,           Norway      (Cholesky decomposition)
  Patricio F. Provasi,      University of Northeastern,   Argentina   (Analysis of coupling constants in localized orbitals)
  Zilvinas Rinkevicius,     KTH Stockholm,                Sweden      (open-shell DFT, ESR)
  Elias Rudberg,            KTH Stockholm,                Sweden      (DFT grid and basis info)
  Torgeir A. Ruden,         University of Oslo,           Norway      (Numerical derivatives in ABACUS)
  Kenneth Ruud,             UiT The Arctic U. of Norway,  Norway      (DALTON; ABACUS magnetic properties and  much more)
  Pawel Salek,              KTH Stockholm,                Sweden      (DALTON; DFT code)
  Claire C. M. Samson       University of Karlsruhe       Germany     (Boys localization, r12 integrals in ERI)
  Alfredo Sanchez de Meras, University of Valencia,       Spain       (CC module, Cholesky decomposition)
  Trond Saue,               Paul Sabatier University,     France      (direct Fock matrix construction)
  Stephan P. A. Sauer,      University of Copenhagen,     Denmark     (SOPPA(CCSD), SOPPA prop., AOSOPPA, vibrational g-factors)
  Bernd Schimmelpfennig,    Forschungszentrum Karlsruhe,  Germany     (AMFI module)
  Kristian Sneskov,         Aarhus University,            Denmark     (QM/MM, PE-CC)
  Arnfinn H. Steindal,      UiT The Arctic U. of Norway,  Norway      (parallel QM/MM)
  K. O. Sylvester-Hvid,     University of Copenhagen,     Denmark     (MC-SCRF)
  Peter R. Taylor,          VLSCI/Univ. of Melbourne,     Australia   (Symmetry handling ABACUS, integral transformation)
  Andrew M. Teale,          University of Nottingham,     England     (DFT-AC, DFT-D)
  David P. Tew,             University of Bristol,        England     (CCSD(R12))
  Olav Vahtras,             KTH Stockholm,                Sweden      (triplet response, spin-orbit, ESR, TDDFT, open-shell DFT)
  David J. Wilson,          La Trobe University,          Australia   (DFT Hessian and DFT magnetizabilities)
  Hans Agren,               KTH Stockholm,                Sweden      (SIRIUS module, RESPONS, MC-SCRF solvation model)
 --------------------------------------------------------------------------------

     Date and time (Linux)  : Sun Sep  8 20:56:57 2013
     Host name              : lpqlx131.ups-tlse.fr                    

 * Work memory size             :    64000000 =  488.28 megabytes.

 * Directories for basis set searches:
   1) /home/bast/DALTON-2013.0-Source/build/test_r12_damped_herdir
   2) /home/bast/DALTON-2013.0-Source/build/basis


Compilation information
-----------------------

 Who compiled             | bast
 Host                     | lpqlx131.ups-tlse.fr
 System                   | Linux-3.8.5-201.fc18.x86_64
 CMake generator          | Unix Makefiles
 Processor                | x86_64
 64-bit integers          | OFF
 MPI                      | OFF
 Fortran compiler         | /usr/bin/gfortran
 Fortran compiler version | GNU Fortran (GCC) 4.7.2 20121109 (Red Hat 4.7.2-8)
 C compiler               | /usr/bin/gcc
 C compiler version       | gcc (GCC) 4.7.2 20121109 (Red Hat 4.7.2-8)
 C++ compiler             | /usr/bin/g++
 C++ compiler version     | g++ (GCC) 4.7.2 20121109 (Red Hat 4.7.2-8)
 Static linking           | OFF
 Last Git revision        | f34203295a86316e27f9e7b44f9b6769c4a046c0
 Configuration time       | 2013-09-08 20:31:27.952056


   Content of the .dal input file
 ----------------------------------

**DALTON INPUT                                    
.RUN WAVE FUNCTION                                
.DIRECT                                           
**INTEGRALS                                       
.R12RGG                                           
1                                                 
1. .123                                           
**WAVE FUNCTIONS                                  
.CC                                               
*SCF INPUT                                        
.THRESHOLD                                        
 1D-10                                            
*CC INPUT                                         
.MP2                                              
.PRINT                                            
 3                                                
.HERDIR                                           
.FROIMP                                           
 1 0 0 0 0 0 0 0                                  
 0 0 0 0 0 0 0 0                                  
*ORBITALS                                         
.MOSTART                                          
 H1DIAG                                           
**END OF DALTON INPUT                             


   Content of the .mol file
 ----------------------------

BASIS                                                                          
cc-pVDZ cc-pCVQZ                                                               
Direct Gaussian-damped MP2-R12 calculation using symmetry                      
                                                                               
    4    1  X                                                                  
 1      8.    1                                                                
O       .000000000000000    .000000000000000  -0.124309000000000       *       
 1      1.    1                                                                
H      1.427450200000000    .000000000000000   0.986437000000000       *       
 2      8.    1                                                                
O       .000000000000000    .000000000000000  -0.124309000000000       *       
 2      1.    1                                                                
H      1.427450200000000    .000000000000000   0.986437000000000       *       


       *******************************************************************
       *********** Output from DALTON general input processing ***********
       *******************************************************************

 --------------------------------------------------------------------------------
   Overall default print level:    0
   Print level for DALTON.STAT:    1

    AO-direct calculation (in sections where implemented)
    HERMIT 1- and 2-electron integral sections will be executed
    "Old" integral transformation used (limited to max 255 basis functions)
    Wave function sections will be executed (SIRIUS module)
 --------------------------------------------------------------------------------


   ****************************************************************************
   *************** Output of molecule and basis set information ***************
   ****************************************************************************


 INFO: basis set line contains more than one basis set:
     cc-pVDZ cc-pCVQZ
 INFO: ".R12AUX" activated automatically.

    The two title cards from your ".mol" input:
    ------------------------------------------------------------------------
 1: Direct Gaussian-damped MP2-R12 calculation using symmetry               
 2:                                                                         
    ------------------------------------------------------------------------

  Atomic type no.    1
  --------------------
  Nuclear charge:   8.00000
  Number of symmetry independent centers:    1
  Number of basis sets to read;    1
  Basis set file used for this atomic type with Z =   8 :
     "/home/bast/DALTON-2013.0-Source/build/basis/cc-pVDZ"

  Atomic type no.    2
  --------------------
  Nuclear charge:   1.00000
  Number of symmetry independent centers:    1
  Number of basis sets to read;    1
  Basis set file used for this atomic type with Z =   1 :
     "/home/bast/DALTON-2013.0-Source/build/basis/cc-pVDZ"

  Atomic type no.    3
  --------------------
  Nuclear charge:   8.00000
  Number of symmetry independent centers:    1
  This is an auxiliary basis for R12, MBSI:    2
  Basis set file used for this atomic type with Z =   8 :
     "/home/bast/DALTON-2013.0-Source/build/basis/cc-pCVQZ"

  Atomic type no.    4
  --------------------
  Nuclear charge:   1.00000
  Number of symmetry independent centers:    1
  This is an auxiliary basis for R12, MBSI:    2
  Basis set file used for this atomic type with Z =   1 :
     "/home/bast/DALTON-2013.0-Source/build/basis/cc-pCVQZ"


                         SYMGRP: Point group information
                         -------------------------------

Point group: Cs 

   * The point group was generated by:

      Reflection in the yz-plane

   * Group multiplication table

        |  E   Oyz
   -----+----------
     E  |  E   Oyz
    Oyz | Oyz   E 

   * Character table

        |  E   Oyz
   -----+----------
    A'  |   1    1
    A"  |   1   -1

   * Direct product table

        | A'   A" 
   -----+----------
    A'  | A'   A" 
    A"  | A"   A' 


                                 Isotopic Masses
                                 ---------------

                           O          15.994915
                           H   _1      1.007825
                           H   _2      1.007825
                           O           0.000000
                           H   _1      0.000000
                           H   _2      0.000000

                       Total mass:    18.010565 amu
                       Natural abundance:   0.000 %

 Center-of-mass coordinates (a.u.):    0.000000    0.000000   -0.000000


  Atoms and basis sets
  --------------------

  Number of atom types :    4
  Total number of atoms:    6

  Basis set 1 refers to the basis "cc-pVDZ" from the basis set library.

  Basis set 2 refers to the basis "cc-pCVQZ" from the basis set library.

  label  basis   atoms  charge   prim  cont     basis
  ------------------------------------------------------------------------------
  O        1       1    8.0000    26    14      [9s4p1d|3s2p1d]                                    
  H        1       2    1.0000     7     5      [4s1p|2s1p]                                        
  O        2       1    0.0000    97    84      [15s9p5d3f1g|8s7p5d3f1g]                           
  H        2       2    0.0000    32    30      [6s3p2d1f|4s3p2d1f]                                
  ------------------------------------------------------------------------------
  total:           6   10.0000   201   168
  ------------------------------------------------------------------------------
  Spherical harmonic basis used.

  Threshold for neglecting AO integrals:  1.00D-12


  Cartesian Coordinates (a.u.)
  ----------------------------

  Total number of coordinates:   18
  O       :     1  x   0.0000000000    2  y   0.0000000000    3  z  -0.1243090000
  H   / 1 :     4  x   1.4274502000    5  y   0.0000000000    6  z   0.9864370000
  H   / 2 :     7  x  -1.4274502000    8  y   0.0000000000    9  z   0.9864370000
  O       :    10  x   0.0000000000   11  y   0.0000000000   12  z  -0.1243090000
  H   / 1 :    13  x   1.4274502000   14  y   0.0000000000   15  z   0.9864370000
  H   / 2 :    16  x  -1.4274502000   17  y   0.0000000000   18  z   0.9864370000


  Symmetry Coordinates
  --------------------

  Number of coordinates in each symmetry:    10    8

  Symmetry  A'  ( 1)

    1   O     y    2
    2   O     z    3
    3   H     x    [  4  -    7 ]/2
    4   H     y    [  5  +    8 ]/2
    5   H     z    [  6  +    9 ]/2
    6   O     y   11
    7   O     z   12
    8   H     x    [ 13  -   16 ]/2
    9   H     y    [ 14  +   17 ]/2
   10   H     z    [ 15  +   18 ]/2

  Symmetry  A"  ( 2)

   11   O     x    1
   12   H     x    [  4  +    7 ]/2
   13   H     y    [  5  -    8 ]/2
   14   H     z    [  6  -    9 ]/2
   15   O     x   10
   16   H     x    [ 13  +   16 ]/2
   17   H     y    [ 14  -   17 ]/2
   18   H     z    [ 15  -   18 ]/2


   Interatomic separations (in Angstrom):
   --------------------------------------

            O           H   _1      H   _2      O           H   _1      H   _2
            ------      ------      ------      ------      ------      ------
 O     :    0.000000
 H   _1:    0.957119    0.000000
 H   _2:    0.957119    1.510748    0.000000
 O     :    0.000000    0.957119    0.957119    0.000000
 H   _1:    0.957119    0.000000    1.510748    0.957119    0.000000
 H   _2:    0.957119    1.510748    0.000000    0.957119    1.510748    0.000000


  Max    interatomic separation is    1.5107 Angstrom (    2.8549 Bohr)
  between atoms    3 and    2, "H   _2" and "H   _1".

  Min HX interatomic separation is    0.0000 Angstrom (    0.0000 Bohr)

  Min YX interatomic separation is    0.0000 Angstrom (    0.0000 Bohr)

WARNING: Number of short HX and YX bond lengths:    2    5
WARNING: If not intentional, maybe your coordinates were in Angstrom,
WARNING: but "Angstrom" was not specified in .mol file


  Bond distances (Angstrom):
  --------------------------

                  atom 1     atom 2       distance
                  ------     ------       --------
  bond distance:  H   _1     O            0.957119
  bond distance:  H   _2     O            0.957119


  Bond angles (degrees):
  ----------------------

                  atom 1     atom 2     atom 3         angle
                  ------     ------     ------         -----
  bond angle:     H   _1     O          H   _2       104.225




 Principal moments of inertia (u*A**2) and principal axes
 --------------------------------------------------------

   IA       0.618446          1.000000    0.000000    0.000000
   IB       1.150110          0.000000    0.000000    1.000000
   IC       1.768555          0.000000    1.000000    0.000000


 Rotational constants
 --------------------

 The molecule is planar.

               A                   B                   C

         817176.1690         439418.0341         285758.0791 MHz
           27.258063           14.657408            9.531864 cm-1


@  Nuclear repulsion energy :    9.196441218324 Hartree


  Symmetry Orbitals
  -----------------

  Number of orbitals in each symmetry:          99   69

  Number of main orbitals in each symmetry:          15    9
  Number of auxiliary functions in each symmetry:    84   60


  Symmetry  A' ( 1)

    1     O    M   1s         1
    2     O    M   1s         2
    3     O    M   1s         3
    4     O    M   2py        5
    5     O    M   2pz        6
    6     O    M   2py        8
    7     O    M   2pz        9
    8     O    M   3d1-      11
    9     O    M   3d0       12
   10     O    M   3d2+      14
   11     H    M   1s        15 +   16
   12     H    M   1s        17 +   18
   13     H    M   2px       19 -   20
   14     H    M   2py       21 +   22
   15     H    M   2pz       23 +   24
   16     O    A   1s        25
   17     O    A   1s        26
   18     O    A   1s        27
   19     O    A   1s        28
   20     O    A   1s        29
   21     O    A   1s        30
   22     O    A   1s        31
   23     O    A   1s        32
   24     O    A   2py       34
   25     O    A   2pz       35
   26     O    A   2py       37
   27     O    A   2pz       38
   28     O    A   2py       40
   29     O    A   2pz       41
   30     O    A   2py       43
   31     O    A   2pz       44
   32     O    A   2py       46
   33     O    A   2pz       47
   34     O    A   2py       49
   35     O    A   2pz       50
   36     O    A   2py       52
   37     O    A   2pz       53
   38     O    A   3d1-      55
   39     O    A   3d0       56
   40     O    A   3d2+      58
   41     O    A   3d1-      60
   42     O    A   3d0       61
   43     O    A   3d2+      63
   44     O    A   3d1-      65
   45     O    A   3d0       66
   46     O    A   3d2+      68
   47     O    A   3d1-      70
   48     O    A   3d0       71
   49     O    A   3d2+      73
   50     O    A   3d1-      75
   51     O    A   3d0       76
   52     O    A   3d2+      78
   53     O    A   4f3-      79
   54     O    A   4f1-      81
   55     O    A   4f0       82
   56     O    A   4f2+      84
   57     O    A   4f3-      86
   58     O    A   4f1-      88
   59     O    A   4f0       89
   60     O    A   4f2+      91
   61     O    A   4f3-      93
   62     O    A   4f1-      95
   63     O    A   4f0       96
   64     O    A   4f2+      98
   65     O    A   5g3-     101
   66     O    A   5g1-     103
   67     O    A   5g0      104
   68     O    A   5g2+     106
   69     O    A   5g4+     108
   70     H    A   1s       109 +  110
   71     H    A   1s       111 +  112
   72     H    A   1s       113 +  114
   73     H    A   1s       115 +  116
   74     H    A   2px      117 -  118
   75     H    A   2py      119 +  120
   76     H    A   2pz      121 +  122
   77     H    A   2px      123 -  124
   78     H    A   2py      125 +  126
   79     H    A   2pz      127 +  128
   80     H    A   2px      129 -  130
   81     H    A   2py      131 +  132
   82     H    A   2pz      133 +  134
   83     H    A   3d2-     135 -  136
   84     H    A   3d1-     137 +  138
   85     H    A   3d0      139 +  140
   86     H    A   3d1+     141 -  142
   87     H    A   3d2+     143 +  144
   88     H    A   3d2-     145 -  146
   89     H    A   3d1-     147 +  148
   90     H    A   3d0      149 +  150
   91     H    A   3d1+     151 -  152
   92     H    A   3d2+     153 +  154
   93     H    A   4f3-     155 +  156
   94     H    A   4f2-     157 -  158
   95     H    A   4f1-     159 +  160
   96     H    A   4f0      161 +  162
   97     H    A   4f1+     163 -  164
   98     H    A   4f2+     165 +  166
   99     H    A   4f3+     167 -  168


  Symmetry  A" ( 2)

  100     O    M   2px        4
  101     O    M   2px        7
  102     O    M   3d2-      10
  103     O    M   3d1+      13
  104     H    M   1s        15 -   16
  105     H    M   1s        17 -   18
  106     H    M   2px       19 +   20
  107     H    M   2py       21 -   22
  108     H    M   2pz       23 -   24
  109     O    A   2px       33
  110     O    A   2px       36
  111     O    A   2px       39
  112     O    A   2px       42
  113     O    A   2px       45
  114     O    A   2px       48
  115     O    A   2px       51
  116     O    A   3d2-      54
  117     O    A   3d1+      57
  118     O    A   3d2-      59
  119     O    A   3d1+      62
  120     O    A   3d2-      64
  121     O    A   3d1+      67
  122     O    A   3d2-      69
  123     O    A   3d1+      72
  124     O    A   3d2-      74
  125     O    A   3d1+      77
  126     O    A   4f2-      80
  127     O    A   4f1+      83
  128     O    A   4f3+      85
  129     O    A   4f2-      87
  130     O    A   4f1+      90
  131     O    A   4f3+      92
  132     O    A   4f2-      94
  133     O    A   4f1+      97
  134     O    A   4f3+      99
  135     O    A   5g4-     100
  136     O    A   5g2-     102
  137     O    A   5g1+     105
  138     O    A   5g3+     107
  139     H    A   1s       109 -  110
  140     H    A   1s       111 -  112
  141     H    A   1s       113 -  114
  142     H    A   1s       115 -  116
  143     H    A   2px      117 +  118
  144     H    A   2py      119 -  120
  145     H    A   2pz      121 -  122
  146     H    A   2px      123 +  124
  147     H    A   2py      125 -  126
  148     H    A   2pz      127 -  128
  149     H    A   2px      129 +  130
  150     H    A   2py      131 -  132
  151     H    A   2pz      133 -  134
  152     H    A   3d2-     135 +  136
  153     H    A   3d1-     137 -  138
  154     H    A   3d0      139 -  140
  155     H    A   3d1+     141 +  142
  156     H    A   3d2+     143 -  144
  157     H    A   3d2-     145 +  146
  158     H    A   3d1-     147 -  148
  159     H    A   3d0      149 -  150
  160     H    A   3d1+     151 +  152
  161     H    A   3d2+     153 -  154
  162     H    A   4f3-     155 -  156
  163     H    A   4f2-     157 +  158
  164     H    A   4f1-     159 -  160
  165     H    A   4f0      161 -  162
  166     H    A   4f1+     163 +  164
  167     H    A   4f2+     165 -  166
  168     H    A   4f3+     167 +  168

  Number of floating/multiple basis set orbitals :    3

  Symmetries of electric field:  A" (2)  A' (1)  A' (1)

  Symmetries of magnetic field:  A' (1)  A" (2)  A" (2)


                     .---------------------------------------.
                     | Starting in Integral Section (HERMIT) |
                     `---------------------------------------'



    *************************************************************************
    ****************** Output from HERMIT input processing ******************
    *************************************************************************


 Default print level:        1

 * Nuclear model: Point charge

 Calculation of one-electron Hamiltonian integrals.

 The following one-electron property integrals are calculated as requested:
          - overlap integrals
          - Cartesian multipole moment integrals of orders 2 and lower

 Center of mass  (bohr):      0.000000000000      0.000000000000     -0.000000008311
 Operator center (bohr):      0.000000000000      0.000000000000      0.000000000000
 Gauge origin    (bohr):      0.000000000000      0.000000000000      0.000000000000
 Dipole origin   (bohr):      0.000000000000      0.000000000000      0.000000000000


     ************************************************************************
     ************************** Output from HERINT **************************
     ************************************************************************

 >>>  Time used in GABGEN     is   0.13 seconds
 >>>> Total CPU  time used in HERMIT:   0.25 seconds
 >>>> Total wall time used in HERMIT:   0.25 seconds


                        .----------------------------------.
                        | End of Integral Section (HERMIT) |
                        `----------------------------------'



                   .--------------------------------------------.
                   | Starting in Wave Function Section (SIRIUS) |
                   `--------------------------------------------'


 **********************************************************************
 *SIRIUS* a direct, restricted step, second order MCSCF program       *
 **********************************************************************

 
     Date and time (Linux)  : Sun Sep  8 20:56:57 2013
     Host name              : lpqlx131.ups-tlse.fr                    

 Title lines from ".mol" input file:
     Direct Gaussian-damped MP2-R12 calculation using symmetry               
                                                                             

 Print level on unit LUPRI =   2 is   0
 Print level on unit LUW4  =   2 is   5

@    (Integral direct) CC calculation.

@    This is a combination run starting with
@              a restricted, closed shell Hartree-Fock calculation

 Fock matrices are calculated directly without use of integrals on disk.

 Initial molecular orbitals are obtained according to
 ".MOSTART H1DIAG" input option

     Wave function specification
     ============================

     For the specification of the Coupled Cluster: see later.

@    For the wave function of type :      >>> CC <<<
@    Number of closed shell electrons          10
@    Number of electrons in active shells       0
@    Total charge of the molecule               0

@    Spin multiplicity and 2 M_S                1         0
     Total number of symmetries                 2
@    Reference state symmetry                   1

     Orbital specifications
     ======================
     Abelian symmetry species          All |    1    2
                                       --- |  ---  ---
     Total number of orbitals           24 |   15    9
     Number of basis functions         168 |   99   69

      ** Automatic occupation of RHF orbitals **

      -- Initial occupation of symmetries is determined from diagonal of H1 matrix.           
      -- Initial occupation of symmetries is :
@    Occupied SCF orbitals               5 |    4    1

     Maximum number of Fock   iterations      0
     Maximum number of DIIS   iterations     60
     Maximum number of QC-SCF iterations     60
     Threshold for SCF convergence     1.00D-10


 Changes of defaults for CC:
 ---------------------------


 -This is a direct atomic orbital integral based
  calculation for coupled cluster wave function

 -Implicit frozen core calculation
  


 >>>>> DIIS optimization of Hartree-Fock <<<<<

 C1-DIIS algorithm; max error vectors =   10

 Automatic occupation of symmetries with  10 electrons.

 Iter     Total energy    Error norm  Delta(E)    SCF occupation
 -----------------------------------------------------------------------------
   1  Screening settings (-IFTHRS, DIFDEN)   -8    T
@  1  -68.8723124414       8.79D+00  -6.89D+01     4   1
      Virial theorem: -V/T =      1.695183
@      MULPOP O      -2.32; H   _1  1.16; H   _2  1.16; 
 -----------------------------------------------------------------------------
   2  Screening settings (-IFTHRS, DIFDEN)   -8    T
@  2  -69.9465490096       7.17D+00  -1.07D+00     3   2
      Virial theorem: -V/T =      2.064349
@      MULPOP O       3.95; H   _1 -1.97; H   _2 -1.97; 
 -----------------------------------------------------------------------------
   3  Screening settings (-IFTHRS, DIFDEN)   -8    T
@  3  -75.7361545471       2.47D+00  -5.79D+00     4   1
      Virial theorem: -V/T =      1.952246
@      MULPOP O      -0.89; H   _1  0.45; H   _2  0.45; 
 -----------------------------------------------------------------------------
   4  Screening settings (-IFTHRS, DIFDEN)   -8    T
@  4  -76.0016352740       6.70D-01  -2.65D-01     4   1
      Virial theorem: -V/T =      1.987968
@      MULPOP O      -0.51; H   _1  0.25; H   _2  0.25; 
 -----------------------------------------------------------------------------
   5  Screening settings (-IFTHRS, DIFDEN)   -8    T
@  5  -76.0265197917       6.02D-02  -2.49D-02     4   1
      Virial theorem: -V/T =      2.001301
@      MULPOP O      -0.33; H   _1  0.16; H   _2  0.16; 
 -----------------------------------------------------------------------------
   6  Screening settings (-IFTHRS, DIFDEN)  -10    F
@  6  -76.0267628938       2.65D-02  -2.43D-04     4   1
      Virial theorem: -V/T =      2.000993
@      MULPOP O      -0.31; H   _1  0.15; H   _2  0.15; 
 -----------------------------------------------------------------------------
   7  Screening settings (-IFTHRS, DIFDEN)  -10    T
@  7  -76.0268031214       3.71D-03  -4.02D-05     4   1
      Virial theorem: -V/T =      2.000469
@      MULPOP O      -0.31; H   _1  0.15; H   _2  0.15; 
 -----------------------------------------------------------------------------
   8  Screening settings (-IFTHRS, DIFDEN)  -10    T
@  8  -76.0268047151       1.25D-03  -1.59D-06     4   1
      Virial theorem: -V/T =      2.000469
@      MULPOP O      -0.30; H   _1  0.15; H   _2  0.15; 
 -----------------------------------------------------------------------------
   9  Screening settings (-IFTHRS, DIFDEN)  -12    F
@  9  -76.0268048037       7.12D-05  -8.86D-08     4   1
      Virial theorem: -V/T =      2.000489
@      MULPOP O      -0.30; H   _1  0.15; H   _2  0.15; 
 -----------------------------------------------------------------------------
  10  Screening settings (-IFTHRS, DIFDEN)  -12    T
@ 10  -76.0268048044       2.55D-05  -7.14D-10     4   1
      Virial theorem: -V/T =      2.000489
@      MULPOP O      -0.30; H   _1  0.15; H   _2  0.15; 
 -----------------------------------------------------------------------------
  11  Screening settings (-IFTHRS, DIFDEN)  -12    T
@ 11  -76.0268048045       4.54D-06  -4.64D-11     4   1
      Virial theorem: -V/T =      2.000489
@      MULPOP O      -0.30; H   _1  0.15; H   _2  0.15; 
 -----------------------------------------------------------------------------
  12  Screening settings (-IFTHRS, DIFDEN)  -14    F
@ 12  -76.0268048045       3.25D-07  -1.29D-12     4   1
      Virial theorem: -V/T =      2.000489
@      MULPOP O      -0.30; H   _1  0.15; H   _2  0.15; 
 -----------------------------------------------------------------------------
  13  Screening settings (-IFTHRS, DIFDEN)  -17    F
@ 13  -76.0268048045       3.65D-08  -7.11D-14     4   1
      Virial theorem: -V/T =      2.000489
@      MULPOP O      -0.30; H   _1  0.15; H   _2  0.15; 
 -----------------------------------------------------------------------------
  14  Screening settings (-IFTHRS, DIFDEN)  -17    T
@ 14  -76.0268048045       4.81D-09   8.53D-14     4   1
      Virial theorem: -V/T =      2.000489
@      MULPOP O      -0.30; H   _1  0.15; H   _2  0.15; 
 -----------------------------------------------------------------------------
  15  Screening settings (-IFTHRS, DIFDEN)  -17    T
@ 15  -76.0268048045       3.04D-10  -8.53D-14     4   1
      Virial theorem: -V/T =      2.000489
@      MULPOP O      -0.30; H   _1  0.15; H   _2  0.15; 
 -----------------------------------------------------------------------------
  16  Screening settings (-IFTHRS, DIFDEN)  -17    T
@ 16  -76.0268048045       3.47D-11   0.00D+00     4   1

@ *** DIIS converged in  16 iterations !
@     Converged SCF energy, gradient:    -76.026804804477    3.47D-11
    - total time used in SIRFCK :              0.00 seconds


 *** SCF orbital energy analysis ***

 Only the five lowest virtual orbital energies printed in each symmetry.

 Number of electrons :   10
 Orbital occupations :    4    1

 Sym       Hartree-Fock orbital energies

  1    -20.55056252    -1.33698677    -0.56718930    -0.49326093     0.18553239
         0.85576954     1.16372542     1.20031087     1.44193033

  2     -0.69881686     0.25630671     0.78841897     1.25359431     1.47724647
         1.93676250

    E(LUMO) :     0.18553239 au (symmetry 1)
  - E(HOMO) :    -0.49326093 au (symmetry 1)
  ------------------------------------------
    gap     :     0.67879331 au

 >>> Writing SIRIFC interface file <<<

  Canonical primary and secondary basis sets
  ISYM       NORB1 MBAS1       NORB2 MBAS2
     1          15    15          84    84
     2           9     9          60    60

 Computation of exchange matrix done [5]

 AUXILIARY BASIS LOW EIGENVALUES
 ISYM         EIGENVALUE
   1      0.000000000000
   2      0.000000000000
 >>>  Time used in R12AUX     is   0.23 seconds

 >>>> CPU and wall time for SCF :       0.502       0.509


                       .-----------------------------------.
                       | >>> Final results from SIRIUS <<< |
                       `-----------------------------------'


@    Spin multiplicity:           1
@    Spatial symmetry:            1
@    Total charge of molecule:    0

@    Final HF energy:             -76.026804804477                 
@    Nuclear repulsion:             9.196441218324
@    Electronic energy:           -85.223246022801

@    Final gradient norm:           0.000000000035

 
     Date and time (Linux)  : Sun Sep  8 20:56:57 2013
     Host name              : lpqlx131.ups-tlse.fr                    

 (Only coefficients >0.0100 are printed.)

 Molecular orbitals for symmetry species  1
 ------------------------------------------

    Orbital         1        2        3        4        5        6
   1 O   :1s     1.0004  -0.0082   0.0022   0.0000   0.0520  -0.0656
   2 O   :1s     0.0023   0.8703  -0.2963   0.0000  -0.1424  -0.5045
   3 O   :1s    -0.0014  -0.1231  -0.1810   0.0000  -0.9206   0.6131
   4 O   :2py    0.0000   0.0000   0.0000   0.9197   0.0000   0.0000
   5 O   :2pz    0.0026   0.1153   0.7943   0.0000  -0.2779  -0.4834
   6 O   :2py    0.0000   0.0000   0.0000   0.0720   0.0000   0.0000
   7 O   :2pz   -0.0017  -0.0663  -0.0013   0.0000  -0.2095   0.2361
   8 O   :3d1-   0.0000   0.0000   0.0000   0.0182   0.0000   0.0000
   9 O   :3d0    0.0000   0.0013   0.0179   0.0000  -0.0076   0.0016
  10 O   :3d2+   0.0001   0.0030   0.0046   0.0000  -0.0100   0.1070
  11 H   :1s    -0.0004   0.3298   0.3520   0.0000   0.0997   1.3364
  12 H   :1s     0.0006  -0.1553  -0.1362   0.0000   0.7792  -1.2179
  13 H   :2px    0.0006  -0.0373  -0.0318   0.0000  -0.0175   0.2968
  14 H   :2py    0.0000   0.0000   0.0000   0.0311   0.0000   0.0000
  15 H   :2pz    0.0005  -0.0206   0.0074   0.0000  -0.0164   0.0610

 Molecular orbitals for symmetry species  2
 ------------------------------------------

    Orbital         1        2        3
   1 O   :2px   -0.7142  -0.4127   0.3890
   2 O   :2px    0.1066  -0.4806   0.2827
   4 O   :3d1+  -0.0269  -0.0213  -0.1117
   5 H   :1s    -0.5579   0.0445  -1.6073
   6 H   :1s     0.1897   1.4239   1.4926
   7 H   :2px    0.0232  -0.0208  -0.0741
   9 H   :2pz    0.0327  -0.0172  -0.1522



 >>>> Total CPU  time used in SIRIUS :      0.51 seconds
 >>>> Total wall time used in SIRIUS :      0.52 seconds

 
     Date and time (Linux)  : Sun Sep  8 20:56:57 2013
     Host name              : lpqlx131.ups-tlse.fr                    


                     .---------------------------------------.
                     | End of Wave Function Section (SIRIUS) |
                     `---------------------------------------'



                    .------------------------------------------.
                    | Starting in Coupled Cluster Section (CC) |
                    `------------------------------------------'

  

 *******************************************************************************
 *******************************************************************************
 *                                                                             *
 *                                                                             *
 *                    START OF COUPLED CLUSTER CALCULATION                     *
 *                                                                             *
 *                                                                             *
 *******************************************************************************
 *******************************************************************************



 CCR12 ANSATZ =   0

 CCR12 APPROX =   0

   NRHF   :       3       1
   NRHFS  :       4       1
   NORB1  :      15       9
   NORB2  :      84      60

 Number of primary orbitals             :           24
 Number of secondary orbitals           :          144
 Total number of orbitals               :          168
 Total number of basis functions        :          168
 Number of (i|p') integrals             :          366
 Number of (i|u') integrals             :          366
 Number of (Ip'|1/r12|jL) integrals     :          366
 Number of (ip'|1/r12|jq') integrals    :       114132
 Number of (ip'|r12|jq') integrals      :       114132
 Number of (ip'|[T1,r12]|jq') integrals :       227592
 Threshold for R12 contributions            =  0.00000    
 Threshold for singular value decomposition = 0.100000E-11

 Calculation with Gaussian-damped linear-r12 terms
 Expansion coefficients and exponents:
    1        1.000000000000000        0.123000000000000
 The B matrix is transformed into an orthogonal basis
 and inverted by diagonalization

 ******************************************************************************
 The MP2-R12/A and MP2-R12/B energies are computed as described in:
 W. Klopper, J. Chem. Phys. 120, 10890-10895 (2004).
 To avoid the hybride scheme, the keyword '.NO HYB'
 must be specified in the Dalton input file.
 ------------------------------------------------------------------------------
 Ansaetze 1, 2, 3 are used and results are printed for approximations A and B.
------------------------------------------------------------------------------
 The Gaussian-damped R12 integrals are computed as described in:
 C. C. M. Samson, W. Klopper and T. Helgaker,
 Comp. Phys. Commun. 149, 1-10 (2002).
 ******************************************************************************

 Core memory required by CCSD_R12 :         634404  (double words)


 Number of two-electron spin-orbit integrals written:      6681 ( 0.1%)

 Number of two-electron spin-orbit integrals written:     12380 ( 0.1%)

 Number of two-electron spin-orbit integrals written:     10060 ( 0.1%)

 Number of two-electron spin-orbit integrals written:      8684 ( 0.1%)

 Number of two-electron spin-orbit integrals written:     12004 ( 0.1%)

 Number of two-electron spin-orbit integrals written:      2976 ( 0.0%)

 Number of two-electron spin-orbit integrals written:      7749 ( 0.0%)

 Number of two-electron spin-orbit integrals written:      9210 ( 0.0%)

 Number of two-electron spin-orbit integrals written:      7731 ( 0.0%)

 Number of two-electron spin-orbit integrals written:      3312 ( 0.0%)

 Number of two-electron spin-orbit integrals written:      1488 ( 0.0%)

 Number of two-electron spin-orbit integrals written:      3348 ( 0.0%)

 Number of two-electron spin-orbit integrals written:      3684 ( 0.0%)

 Number of two-electron spin-orbit integrals written:      2586 ( 0.0%)
 Computation of (ik|[[f12,T1],f12]|jl) integrals done
 >>>  Time used in #6 [4]     is   1.48 seconds

 Number of two-electron spin-orbit integrals written:      6681 ( 0.1%)

 Number of two-electron spin-orbit integrals written:     12380 ( 0.1%)

 Number of two-electron spin-orbit integrals written:     10060 ( 0.1%)

 Number of two-electron spin-orbit integrals written:      8684 ( 0.1%)

 Number of two-electron spin-orbit integrals written:     12004 ( 0.1%)

 Number of two-electron spin-orbit integrals written:      2976 ( 0.0%)

 Number of two-electron spin-orbit integrals written:      7749 ( 0.0%)

 Number of two-electron spin-orbit integrals written:      9210 ( 0.0%)

 Number of two-electron spin-orbit integrals written:      7731 ( 0.0%)

 Number of two-electron spin-orbit integrals written:      3312 ( 0.0%)

 Number of two-electron spin-orbit integrals written:      1488 ( 0.0%)

 Number of two-electron spin-orbit integrals written:      3348 ( 0.0%)

 Number of two-electron spin-orbit integrals written:      3684 ( 0.0%)

 Number of two-electron spin-orbit integrals written:      2586 ( 0.0%)
 Computation of (ik|f12**2|jl) integrals done
 >>>  Time used in #4 [4]     is   1.44 seconds

 Number of two-electron spin-orbit integrals written:      6681 ( 0.1%)

 Number of two-electron spin-orbit integrals written:     12380 ( 0.1%)

 Number of two-electron spin-orbit integrals written:     10060 ( 0.1%)

 Number of two-electron spin-orbit integrals written:      8684 ( 0.1%)

 Number of two-electron spin-orbit integrals written:     12004 ( 0.1%)

 Number of two-electron spin-orbit integrals written:      2976 ( 0.0%)

 Number of two-electron spin-orbit integrals written:      7746 ( 0.0%)

 Number of two-electron spin-orbit integrals written:      9210 ( 0.0%)

 Number of two-electron spin-orbit integrals written:      7731 ( 0.0%)

 Number of two-electron spin-orbit integrals written:      3312 ( 0.0%)

 Number of two-electron spin-orbit integrals written:      1488 ( 0.0%)

 Number of two-electron spin-orbit integrals written:      3348 ( 0.0%)

 Number of two-electron spin-orbit integrals written:      3684 ( 0.0%)

 Number of two-electron spin-orbit integrals written:      2586 ( 0.0%)
 Computation of (ik|f12/r12|jl) integrals done
 >>>  Time used in #2 [4]     is   1.45 seconds

 Number of two-electron spin-orbit integrals written:     96148 ( 1.3%)
 >>>  Time used in TWOINT     is   0.20 seconds

 Number of two-electron spin-orbit integrals written:    184934 ( 1.3%)
 >>>  Time used in TWOINT     is   0.17 seconds

 Number of two-electron spin-orbit integrals written:    151736 ( 1.3%)

 Number of two-electron spin-orbit integrals written:    140225 ( 1.5%)
 >>>  Time used in TWOINT     is   0.18 seconds

 Number of two-electron spin-orbit integrals written:    199249 ( 1.4%)
 >>>  Time used in TWOINT     is   0.12 seconds

 Number of two-electron spin-orbit integrals written:     17816 ( 0.1%)

 Number of two-electron spin-orbit integrals written:     43327 ( 0.1%)

 Number of two-electron spin-orbit integrals written:     50297 ( 0.1%)

 Number of two-electron spin-orbit integrals written:     41260 ( 0.1%)

 Number of two-electron spin-orbit integrals written:     17218 ( 0.1%)

 Number of two-electron spin-orbit integrals written:     17368 ( 0.1%)

 Number of two-electron spin-orbit integrals written:     36012 ( 0.1%)

 Number of two-electron spin-orbit integrals written:     39324 ( 0.1%)

 Number of two-electron spin-orbit integrals written:     27324 ( 0.1%)
 Computation of (ip'|f12|jq') integrals done
 >>>  Time used in #3 [5]     is   2.33 seconds

 Number of two-electron spin-orbit integrals written:     96150 ( 1.3%)

 Number of two-electron spin-orbit integrals written:    184934 ( 1.3%)

 Number of two-electron spin-orbit integrals written:    151744 ( 1.3%)

 Number of two-electron spin-orbit integrals written:    140229 ( 1.5%)

 Number of two-electron spin-orbit integrals written:    199250 ( 1.4%)

 Number of two-electron spin-orbit integrals written:     17816 ( 0.1%)

 Number of two-electron spin-orbit integrals written:     43329 ( 0.1%)

 Number of two-electron spin-orbit integrals written:     50298 ( 0.1%)

 Number of two-electron spin-orbit integrals written:     41262 ( 0.1%)

 Number of two-electron spin-orbit integrals written:     17218 ( 0.1%)

 Number of two-electron spin-orbit integrals written:     17368 ( 0.1%)

 Number of two-electron spin-orbit integrals written:     36012 ( 0.1%)

 Number of two-electron spin-orbit integrals written:     39324 ( 0.1%)

 Number of two-electron spin-orbit integrals written:     27324 ( 0.1%)
 Computation of (ip'|1/r12|jq') integrals done
 >>>  Time used in #1 [5]     is   1.99 seconds

 Number of two-electron spin-orbit integrals written:      6681 ( 0.1%)

 Number of two-electron spin-orbit integrals written:     12380 ( 0.1%)

 Number of two-electron spin-orbit integrals written:     10060 ( 0.1%)

 Number of two-electron spin-orbit integrals written:      8684 ( 0.1%)

 Number of two-electron spin-orbit integrals written:     12004 ( 0.1%)

 Number of two-electron spin-orbit integrals written:      2976 ( 0.0%)

 Number of two-electron spin-orbit integrals written:      7749 ( 0.0%)

 Number of two-electron spin-orbit integrals written:      9210 ( 0.0%)

 Number of two-electron spin-orbit integrals written:      7731 ( 0.0%)

 Number of two-electron spin-orbit integrals written:      3312 ( 0.0%)

 Number of two-electron spin-orbit integrals written:      1488 ( 0.0%)

 Number of two-electron spin-orbit integrals written:      3348 ( 0.0%)

 Number of two-electron spin-orbit integrals written:      3684 ( 0.0%)

 Number of two-electron spin-orbit integrals written:      2586 ( 0.0%)
 >>>  Time used in #4 [4]     is   1.43 seconds

 Number of two-electron spin-orbit integrals written:     96148 ( 1.3%)
 >>>  Time used in TWOINT     is   0.20 seconds

 Number of two-electron spin-orbit integrals written:    184934 ( 1.3%)
 >>>  Time used in TWOINT     is   0.17 seconds

 Number of two-electron spin-orbit integrals written:    151736 ( 1.3%)

 Number of two-electron spin-orbit integrals written:    140225 ( 1.5%)
 >>>  Time used in TWOINT     is   0.18 seconds

 Number of two-electron spin-orbit integrals written:    199249 ( 1.4%)
 >>>  Time used in TWOINT     is   0.12 seconds

 Number of two-electron spin-orbit integrals written:     17816 ( 0.1%)

 Number of two-electron spin-orbit integrals written:     43327 ( 0.1%)

 Number of two-electron spin-orbit integrals written:     50297 ( 0.1%)

 Number of two-electron spin-orbit integrals written:     41260 ( 0.1%)

 Number of two-electron spin-orbit integrals written:     17218 ( 0.1%)

 Number of two-electron spin-orbit integrals written:     17368 ( 0.1%)

 Number of two-electron spin-orbit integrals written:     36012 ( 0.1%)

 Number of two-electron spin-orbit integrals written:     39324 ( 0.1%)

 Number of two-electron spin-orbit integrals written:     27324 ( 0.1%)
 Computation of (i* p'|f12|jq') integrals done
 >>>  Time used in #3 [5]     is   2.40 seconds

 Number of two-electron spin-orbit integrals written:     96148 ( 1.3%)
 >>>  Time used in TWOINT     is   0.20 seconds

 Number of two-electron spin-orbit integrals written:    184934 ( 1.3%)
 >>>  Time used in TWOINT     is   0.17 seconds

 Number of two-electron spin-orbit integrals written:    151736 ( 1.3%)

 Number of two-electron spin-orbit integrals written:    140225 ( 1.5%)
 >>>  Time used in TWOINT     is   0.18 seconds

 Number of two-electron spin-orbit integrals written:    199249 ( 1.4%)
 >>>  Time used in TWOINT     is   0.12 seconds

 Number of two-electron spin-orbit integrals written:     17816 ( 0.1%)

 Number of two-electron spin-orbit integrals written:     43327 ( 0.1%)

 Number of two-electron spin-orbit integrals written:     50297 ( 0.1%)

 Number of two-electron spin-orbit integrals written:     41260 ( 0.1%)

 Number of two-electron spin-orbit integrals written:     17218 ( 0.1%)

 Number of two-electron spin-orbit integrals written:     17368 ( 0.1%)

 Number of two-electron spin-orbit integrals written:     36012 ( 0.1%)

 Number of two-electron spin-orbit integrals written:     39324 ( 0.1%)

 Number of two-electron spin-orbit integrals written:     27324 ( 0.1%)
 Computation of (i'p|f12|jq') integrals done
 >>>  Time used in #3 [5]     is   2.59 seconds

 Number of two-electron spin-orbit integrals written:     93621 ( 1.3%)
 >>>  Time used in TWOINT     is   0.62 seconds

 Number of two-electron spin-orbit integrals written:    170910 ( 1.2%)
 >>>  Time used in TWOINT     is   0.47 seconds

 Number of two-electron spin-orbit integrals written:    132782 ( 1.1%)
 >>>  Time used in TWOINT     is   0.22 seconds

 Number of two-electron spin-orbit integrals written:    135927 ( 1.4%)
 >>>  Time used in TWOINT     is   0.55 seconds

 Number of two-electron spin-orbit integrals written:    189504 ( 1.3%)
 >>>  Time used in TWOINT     is   0.27 seconds

 Number of two-electron spin-orbit integrals written:     17816 ( 0.1%)
 >>>  Time used in TWOINT     is   0.11 seconds

 Number of two-electron spin-orbit integrals written:     43330 ( 0.1%)
 >>>  Time used in TWOINT     is   0.12 seconds

 Number of two-electron spin-orbit integrals written:     50300 ( 0.1%)
 >>>  Time used in TWOINT     is   0.12 seconds

 Number of two-electron spin-orbit integrals written:     41262 ( 0.1%)
 >>>  Time used in TWOINT     is   0.11 seconds

 Number of two-electron spin-orbit integrals written:     17218 ( 0.1%)

 Number of two-electron spin-orbit integrals written:     17368 ( 0.1%)

 Number of two-electron spin-orbit integrals written:     36012 ( 0.1%)

 Number of two-electron spin-orbit integrals written:     39324 ( 0.1%)

 Number of two-electron spin-orbit integrals written:     27036 ( 0.1%)
 Computation of (ip'|[T,f12]|jq') integrals done
 >>>  Time used in #5 [5]     is   4.19 seconds


                 +-----------------------------------------------+
                 ! MP2-R12 ansatz := (1 - P1 - P2 + P1*P2) * R12 !
                 +-----------------------------------------------+


 SECOND-ORDER PAIR ENERGIES:

                    1   -0.008981597    0.000000000
                    2   -0.009382401   -0.005593894
                    3   -0.017430808    0.000000000
                    4   -0.009038788   -0.005876788
                    5   -0.009981194   -0.019823537
                    6   -0.016907534    0.000000000
                    7   -0.012254219   -0.005982087
                    8   -0.012881980   -0.018914800
                    9   -0.009006142   -0.019883740
                   10   -0.019705588    0.000000000

 MP2 =   -0.201645100   -0.125570253   -0.076074848


                         +--------------------------------+
                         ! Auxiliary-basis MP2-R12 method !
                         +--------------------------------+


 SECOND-ORDER R12/A PAIR ENERGIES:

   1   -0.008981597   -0.012189295    0.000000000   -0.000000000     4.56458         3.97321    
   2   -0.009382401   -0.012614417   -0.005593894   -0.005899320     4.56458         3.97321    
   3   -0.017430808   -0.021961741    0.000000000   -0.000000000     4.56458         3.97321    
   4   -0.009038788   -0.012409613   -0.005876788   -0.006243881     4.56458         3.97321    
   5   -0.009981194   -0.012542943   -0.019823537   -0.021442366     4.56458         3.97321    
   6   -0.016907534   -0.022010145    0.000000000   -0.000000000     4.56458         3.97321    
   7   -0.012254219   -0.016129783   -0.005982087   -0.006296933     4.56458         3.97321    
   8   -0.012881980   -0.014995428   -0.018914800   -0.020165198     4.56458         3.97321    
   9   -0.009006142   -0.010981132   -0.019883740   -0.021313529     4.56458         3.97321    
  10   -0.019705588   -0.023405855    0.000000000   -0.000000000     4.56458         3.97321    

       -0.125570253   -0.159240351   -0.076074848   -0.081361228

              MP2-R12/A   correlation energy =   -0.240601579

 SECOND-ORDER R12/B PAIR ENERGIES:

   1   -0.008981597   -0.011568003    0.000000000   -0.000000000     7.59341         6.51776    
   2   -0.009382401   -0.012043061   -0.005593894   -0.005830845     6.82361         5.74797    
   3   -0.017430808   -0.021220000    0.000000000   -0.000000000     6.05382         4.97817    
   4   -0.009038788   -0.011719279   -0.005876788   -0.006148793     6.74968         5.67404    
   5   -0.009981194   -0.011985294   -0.019823537   -0.021095269     5.97989         4.90424    
   6   -0.016907534   -0.021152305    0.000000000   -0.000000000     5.90596         4.83031    
   7   -0.012254219   -0.015542598   -0.005982087   -0.006234994     6.95524         5.87959    
   8   -0.012881980   -0.014622757   -0.018914800   -0.019931885     6.18544         5.10980    
   9   -0.009006142   -0.010569347   -0.019883740   -0.021020164     6.11151         5.03587    
  10   -0.019705588   -0.022873782    0.000000000   -0.000000000     6.31707         5.24142    

       -0.125570253   -0.153296425   -0.076074848   -0.080261950

              MP2-R12/B   correlation energy =   -0.233558375


                 +-----------------------------------------------+
                 ! MP2-R12 ansatz := (1 - O1 - O2 + O1*O2) * R12 !
                 +-----------------------------------------------+



                         +--------------------------------+
                         ! Auxiliary-basis MP2-R12 method !
                         +--------------------------------+


 SECOND-ORDER R12/A   PAIR ENERGIES:

   1   -0.008981597   -0.013325202    0.000000000   -0.000000000     1.61946         1.91760    
   2   -0.009382401   -0.017234658   -0.005593894   -0.007516783     1.62077         1.91807    
   3   -0.017430808   -0.022812433    0.000000000   -0.000000000     1.62318         1.91879    
   4   -0.009038788   -0.018149402   -0.005876788   -0.008320212     1.62093         1.91812    
   5   -0.009981194   -0.013641168   -0.019823537   -0.020964692     1.62352         1.91888    
   6   -0.016907534   -0.022338676    0.000000000   -0.000000000     1.62389         1.91899    
   7   -0.012254219   -0.020868451   -0.005982087   -0.007637477     1.62049         1.91798    
   8   -0.012881980   -0.015780469   -0.018914800   -0.020197035     1.62264         1.91864    
   9   -0.009006142   -0.011536508   -0.019883740   -0.021013076     1.62293         1.91872    
  10   -0.019705588   -0.024034628    0.000000000   -0.000000000     1.62216         1.91850    

       -0.125570253   -0.179721595   -0.076074848   -0.085649274

              MP2-R12/A   correlation energy =   -0.265370870

 SECOND-ORDER R12/B   PAIR ENERGIES:

   1   -0.008981597   -0.012378886    0.000000000   -0.000000000     2.33850         2.81613    
   2   -0.009382401   -0.015668623   -0.005593894   -0.007127428     2.15460         2.59486    
   3   -0.017430808   -0.021845374    0.000000000   -0.000000000     1.96889         2.36572    
   4   -0.009038788   -0.016233472   -0.005876788   -0.007786592     2.13686         2.57321    
   5   -0.009981194   -0.012847237   -0.019823537   -0.020705440     1.95093         2.34325    
   6   -0.016907534   -0.021311402    0.000000000   -0.000000000     1.93295         2.32070    
   7   -0.012254219   -0.019263376   -0.005982087   -0.007316250     2.18616         2.63322    
   8   -0.012881980   -0.015197526   -0.018914800   -0.019915907     2.00081         2.40551    
   9   -0.009006142   -0.010975051   -0.019883740   -0.020751363     1.98289         2.38320    
  10   -0.019705588   -0.023275257    0.000000000   -0.000000000     2.03265         2.44504    

       -0.125570253   -0.168996204   -0.076074848   -0.083602979

              MP2-R12/B   correlation energy =   -0.252599183


          +-------------------------------------------------------------+
          ! MP2-R12 ansatz := (1 - V1*V2) * (1 - O1 - O2 + O1*O2) * R12 !
          +-------------------------------------------------------------+



                         +--------------------------------+
                         ! Auxiliary-basis MP2-R12 method !
                         +--------------------------------+


 SECOND-ORDER R12/B   PAIR ENERGIES:

   1   -0.008981597   -0.012378886    0.000000000   -0.000000000     8.68248         8.30942    
   2   -0.009382401   -0.015668623   -0.005593894   -0.007127428     7.89823         7.52146    
   3   -0.017430808   -0.021845374    0.000000000   -0.000000000     7.10780         6.72618    
   4   -0.009038788   -0.016233472   -0.005876788   -0.007786592     7.82264         7.44546    
   5   -0.009981194   -0.012847237   -0.019823537   -0.020705440     7.03141         6.64924    
   6   -0.016907534   -0.021311402    0.000000000   -0.000000000     6.95492         6.57219    
   7   -0.012254219   -0.019263376   -0.005982087   -0.007316250     8.03267         7.65661    
   8   -0.012881980   -0.015197526   -0.018914800   -0.019915907     7.24356         6.86287    
   9   -0.009006142   -0.010975051   -0.019883740   -0.020751363     7.16735         6.78614    
  10   -0.019705588   -0.023275257    0.000000000   -0.000000000     7.37903         6.99924    

       -0.125570253   -0.168996204   -0.076074848   -0.083602979

              MP2-R12/B   correlation energy =   -0.252599183
 >>>  Time used in E(R12)     is   0.56 seconds
 Time for MP2-R12 part cpu :   19.866999999999997     
 Time for MP2-R12 part wall:   21.506000012159348     

NOAUXB with HERDIR not implemented


 *******************************************************************

 Ground state energy is target 

 Ecorr =                      0.00000000000000000000

 *******************************************************************

 requested model not yet implemented
  

 *******************************************************************************
 *******************************************************************************
 *                                                                             *
 *                                                                             *
 *                   SUMMARY OF COUPLED CLUSTER CALCULATION                    *
 *                                                                             *
 *                                                                             *
 *******************************************************************************
 *******************************************************************************

  

 *******************************************************************************
 *******************************************************************************
 *                                                                             *
 *                                                                             *
 *                      END OF COUPLED CLUSTER CALCULATION                     *
 *                                                                             *
 *                                                                             *
 *******************************************************************************
 *******************************************************************************


 >>>> CPU and wall time for CC :      19.867      21.506

 
     Date and time (Linux)  : Sun Sep  8 20:57:19 2013
     Host name              : lpqlx131.ups-tlse.fr                    


                      .-------------------------------------.
                      | End of Coupled Cluster Section (CC) |
                      `-------------------------------------'

 >>>> Total CPU  time used in DALTON:  20.64 seconds
 >>>> Total wall time used in DALTON:  22.30 seconds

 
     Date and time (Linux)  : Sun Sep  8 20:57:19 2013
     Host name              : lpqlx131.ups-tlse.fr                    
