

     ************************************************************************
     *************** Dalton - An Electronic Structure Program ***************
     ************************************************************************

    This is output from DALTON 2016.alpha
   ----------------------------------------------------------------------------
    NOTE:
     
    Dalton is an experimental code for the evaluation of molecular
    properties using (MC)SCF, DFT, CI, and CC wave functions.
    The authors accept no responsibility for the performance of
    the code or for the correctness of the results.
     
    The code (in whole or part) is provided under a licence and
    is not to be reproduced for further distribution without
    the written permission of the authors or their representatives.
     
    See the home page "http://daltonprogram.org" for further information.
     
    If results obtained with this code are published,
    the appropriate citations would be both of:
     
       K. Aidas, C. Angeli, K. L. Bak, V. Bakken, R. Bast,
       L. Boman, O. Christiansen, R. Cimiraglia, S. Coriani,
       J. Cukras, P. Dahle, E. K. Dalskov, U. Ekstroem,
       T. Enevoldsen, J. J. Eriksen, P. Ettenhuber, B. Fernandez,
       L. Ferrighi, H. Fliegl, L. Frediani, K. Hald, A. Halkier,
       C. Haettig, H. Heiberg, T. Helgaker, A. C. Hennum,
       H. Hettema, E. Hjertenaes, S. Hoest, I.-M. Hoeyvik,
       M. F. Iozzi, B. Jansik, H. J. Aa. Jensen, D. Jonsson,
       P. Joergensen, M. Kaminski, J. Kauczor, S. Kirpekar,
       T. Kjaergaard, W. Klopper, S. Knecht, R. Kobayashi, H. Koch,
       J. Kongsted, A. Krapp, K. Kristensen, A. Ligabue,
       O. B. Lutnaes, J. I. Melo, K. V. Mikkelsen, R. H. Myhre,
       C. Neiss, C. B. Nielsen, P. Norman, J. Olsen,
       J. M. H. Olsen, A. Osted, M. J. Packer, F. Pawlowski,
       T. B. Pedersen, P. F. Provasi, S. Reine, Z. Rinkevicius,
       T. A. Ruden, K. Ruud, V. Rybkin, P. Salek, C. C. M. Samson,
       A. Sanchez de Meras, T. Saue, S. P. A. Sauer,
       B. Schimmelpfennig, K. Sneskov, A. H. Steindal,
       K. O. Sylvester-Hvid, P. R. Taylor, A. M. Teale,
       E. I. Tellgren, D. P. Tew, A. J. Thorvaldsen, L. Thoegersen,
       O. Vahtras, M. A. Watson, D. J. D. Wilson, M. Ziolkowski
       and H. Agren,
       "The Dalton quantum chemistry program system",
       WIREs Comput. Mol. Sci. 2013. (doi: 10.1002/wcms.1172)
    
    and
    
       Dalton, a Molecular Electronic Structure Program,
       Release DALTON2015.alpha (2015), see http://daltonprogram.org
   ----------------------------------------------------------------------------

    Authors in alphabetical order (major contribution(s) in parenthesis):

  Kestutis Aidas,           Vilnius University,           Lithuania   (QM/MM)
  Celestino Angeli,         University of Ferrara,        Italy       (NEVPT2)
  Keld L. Bak,              UNI-C,                        Denmark     (AOSOPPA, non-adiabatic coupling, magnetic properties)
  Vebjoern Bakken,          University of Oslo,           Norway      (DALTON; geometry optimizer, symmetry detection)
  Radovan Bast,             KTH Stockholm,                Sweden      (DALTON installation and execution frameworks)
  Pablo Baudin,             University of Valencia,       Spain       (Cholesky excitation energies)
  Linus Boman,              NTNU,                         Norway      (Cholesky decomposition and subsystems)
  Ove Christiansen,         Aarhus University,            Denmark     (CC module)
  Renzo Cimiraglia,         University of Ferrara,        Italy       (NEVPT2)
  Sonia Coriani,            University of Trieste,        Italy       (CC module, MCD in RESPONS)
  Janusz Cukras,            University of Trieste,        Italy       (MChD in RESPONS)
  Paal Dahle,               University of Oslo,           Norway      (Parallelization)
  Erik K. Dalskov,          UNI-C,                        Denmark     (SOPPA)
  Thomas Enevoldsen,        Univ. of Southern Denmark,    Denmark     (SOPPA)
  Janus J. Eriksen,         Aarhus University,            Denmark     (Polarizable embedding model, TDA)
  Berta Fernandez,          U. of Santiago de Compostela, Spain       (doublet spin, ESR in RESPONS)
  Lara Ferrighi,            Aarhus University,            Denmark     (PCM Cubic response)
  Heike Fliegl,             University of Oslo,           Norway      (CCSD(R12))
  Luca Frediani,            UiT The Arctic U. of Norway,  Norway      (PCM)
  Bin Gao,                  UiT The Arctic U. of Norway,  Norway      (Gen1Int library)
  Christof Haettig,         Ruhr-University Bochum,       Germany     (CC module)
  Kasper Hald,              Aarhus University,            Denmark     (CC module)
  Asger Halkier,            Aarhus University,            Denmark     (CC module)
  Erik D. Hedegaard,        Univ. of Southern Denmark,    Denmark     (Polarizable embedding model, QM/MM)
  Hanne Heiberg,            University of Oslo,           Norway      (geometry analysis, selected one-electron integrals)
  Trygve Helgaker,          University of Oslo,           Norway      (DALTON; ABACUS, ERI, DFT modules, London, and much more)
  Alf Christian Hennum,     University of Oslo,           Norway      (Parity violation)
  Hinne Hettema,            University of Auckland,       New Zealand (quadratic response in RESPONS; SIRIUS supersymmetry)
  Eirik Hjertenaes,         NTNU,                         Norway      (Cholesky decomposition)
  Maria Francesca Iozzi,    University of Oslo,           Norway      (RPA)
  Brano Jansik              Technical Univ. of Ostrava    Czech Rep.  (DFT cubic response)
  Hans Joergen Aa. Jensen,  Univ. of Southern Denmark,    Denmark     (DALTON; SIRIUS, RESPONS, ABACUS modules, London, and much more)
  Dan Jonsson,              UiT The Arctic U. of Norway,  Norway      (cubic response in RESPONS module)
  Poul Joergensen,          Aarhus University,            Denmark     (RESPONS, ABACUS, and CC modules)
  Maciej Kaminski,          University of Warsaw,         Poland      (CPPh in RESPONS)
  Joanna Kauczor,           Linkoeping University,        Sweden      (Complex polarization propagator (CPP) module)
  Sheela Kirpekar,          Univ. of Southern Denmark,    Denmark     (Mass-velocity & Darwin integrals)
  Wim Klopper,              KIT Karlsruhe,                Germany     (R12 code in CC, SIRIUS, and ABACUS modules)
  Stefan Knecht,            ETH Zurich,                   Switzerland (Parallel CI and MCSCF)
  Rika Kobayashi,           Australian National Univ.,    Australia   (DIIS in CC, London in MCSCF)
  Henrik Koch,              NTNU,                         Norway      (CC module, Cholesky decomposition)
  Jacob Kongsted,           Univ. of Southern Denmark,    Denmark     (Polarizable embedding model, QM/MM)
  Andrea Ligabue,           University of Modena,         Italy       (CTOCD, AOSOPPA)
  Nanna H. List             Univ. of Southern Denmark,    Denmark     (Polarizable embedding model)
  Ola B. Lutnaes,           University of Oslo,           Norway      (DFT Hessian)
  Juan I. Melo,             University of Buenos Aires,   Argentina   (LRESC, Relativistic Effects on NMR Shieldings)
  Kurt V. Mikkelsen,        University of Copenhagen,     Denmark     (MC-SCRF and QM/MM)
  Rolf H. Myhre,            NTNU,                         Norway      (Cholesky, subsystems and ECC2)
  Christian Neiss,          Univ. Erlangen-Nuernberg,     Germany     (CCSD(R12))
  Christian B. Nielsen,     University of Copenhagen,     Denmark     (QM/MM)
  Patrick Norman,           Linkoeping University,        Sweden      (Cubic response and complex response in RESPONS)
  Jeppe Olsen,              Aarhus University,            Denmark     (SIRIUS CI/density modules)
  Jogvan Magnus H. Olsen,   Univ. of Southern Denmark,    Denmark     (Polarizable embedding model, QM/MM)
  Anders Osted,             Copenhagen University,        Denmark     (QM/MM)
  Martin J. Packer,         University of Sheffield,      UK          (SOPPA)
  Filip Pawlowski,          Kazimierz Wielki University,  Poland      (CC3)
  Morten N. Pedersen,       Univ. of Southern Denmark,    Denmark     (Polarizable embedding model)
  Thomas B. Pedersen,       University of Oslo,           Norway      (Cholesky decomposition)
  Patricio F. Provasi,      University of Northeastern,   Argentina   (Analysis of coupling constants in localized orbitals)
  Zilvinas Rinkevicius,     KTH Stockholm,                Sweden      (open-shell DFT, ESR)
  Elias Rudberg,            KTH Stockholm,                Sweden      (DFT grid and basis info)
  Torgeir A. Ruden,         University of Oslo,           Norway      (Numerical derivatives in ABACUS)
  Kenneth Ruud,             UiT The Arctic U. of Norway,  Norway      (DALTON; ABACUS magnetic properties and much more)
  Pawel Salek,              KTH Stockholm,                Sweden      (DALTON; DFT code)
  Claire C. M. Samson       University of Karlsruhe       Germany     (Boys localization, r12 integrals in ERI)
  Alfredo Sanchez de Meras, University of Valencia,       Spain       (CC module, Cholesky decomposition)
  Trond Saue,               Paul Sabatier University,     France      (direct Fock matrix construction)
  Stephan P. A. Sauer,      University of Copenhagen,     Denmark     (SOPPA(CCSD), SOPPA prop., AOSOPPA, vibrational g-factors)
  Bernd Schimmelpfennig,    Forschungszentrum Karlsruhe,  Germany     (AMFI module)
  Kristian Sneskov,         Aarhus University,            Denmark     (Polarizable embedding model, QM/MM)
  Arnfinn H. Steindal,      UiT The Arctic U. of Norway,  Norway      (parallel QM/MM, Polarizable embedding model)
  Casper Steinmann,         Univ. of Southern Denmark,    Denmark     (QFIT, Polarizable embedding model)
  K. O. Sylvester-Hvid,     University of Copenhagen,     Denmark     (MC-SCRF)
  Peter R. Taylor,          VLSCI/Univ. of Melbourne,     Australia   (Symmetry handling ABACUS, integral transformation)
  Andrew M. Teale,          University of Nottingham,     England     (DFT-AC, DFT-D)
  David P. Tew,             University of Bristol,        England     (CCSD(R12))
  Olav Vahtras,             KTH Stockholm,                Sweden      (triplet response, spin-orbit, ESR, TDDFT, open-shell DFT)
  David J. Wilson,          La Trobe University,          Australia   (DFT Hessian and DFT magnetizabilities)
  Hans Agren,               KTH Stockholm,                Sweden      (SIRIUS module, RESPONS, MC-SCRF solvation model)
 --------------------------------------------------------------------------------

     Date and time (Linux)  : Tue Feb 24 17:21:59 2015
     Host name              : foeroyar                                

 * Work memory size             :    64000000 =  488.28 megabytes.

 * Directories for basis set searches:
   1) /home/magnus/Projects/dalton_devel/dalton/DALTON/test/dft_disp_d3
   2) /home/magnus/Projects/dalton_devel/dalton/build_pedevel/basis


Compilation information
-----------------------

 Who compiled             | magnus
 Host                     | foeroyar
 System                   | Linux-3.18.6-200.fc21.x86_64
 CMake generator          | Unix Makefiles
 Processor                | x86_64
 64-bit integers          | OFF
 MPI                      | ON
 Fortran compiler         | /usr/local/bin/mpif90
 Fortran compiler version | GNU Fortran (GCC) 4.9.2 20150212 (Red Hat 4.9.2-6)
 C compiler               | /usr/local/bin/mpicc
 C compiler version       | gcc (GCC) 4.9.2 20150212 (Red Hat 4.9.2-6)
 C++ compiler             | /usr/local/bin/mpicxx
 C++ compiler version     | unknown
 BLAS                     | /lib64/libblas.so
 LAPACK                   | /lib64/liblapack.so
 Static linking           | OFF
 Last Git revision        | 18a0c05722d85cb89ac56b556159f40233a08cd3
 Git branch               | [32mpe/develop[m
 Configuration time       | 2015-02-24 17:08:32.805142

 * Sequential calculation.


   Content of the .dal input file
 ----------------------------------

**DALTON INPUT                                    
.RUN WAVEFUNCTION                                 
.DIRECT                                           
.OPTIMIZE                                         
**WAVE FUNCTIONS                                  
.DFT                                              
 BLYP                                             
*DFT INPUT                                        
.DFTD3                                            
.GRID TYPE                                        
BECKE                                             
*SCF INPUT                                        
.THRESH                                           
 1.0D-06                                          
**END OF INPUT                                    


   Content of the .mol file
 ----------------------------

BASIS                                                                          
STO-3G                                                                         
CH4 Dimer                                                                      
----------                                                                     
Atomtypes=2 Angstrom                                                           
Atoms=2  Charge=6.0                                                            
C   0.000000  -0.000140   1.859161                                             
C   0.000000   0.000140  -1.859161                                             
Atoms=8  Charge=1.0                                                            
H  -0.888551   0.513060   1.494685                                             
H   0.888551   0.513060   1.494685                                             
H   0.000000  -1.026339   1.494868                                             
H   0.000000   0.000089   2.948284                                             
H   0.000000  -0.000089  -2.948284                                             
H  -0.888551  -0.513060  -1.494685                                             
H   0.888551  -0.513060  -1.494685                                             
H   0.000000   1.026339  -1.494868                                             


       *******************************************************************
       *********** Output from DALTON general input processing ***********
       *******************************************************************

 --------------------------------------------------------------------------------
   Overall default print level:    0
   Print level for DALTON.STAT:    1

    AO-direct calculation (in sections where implemented)
    HERMIT 1- and 2-electron integral sections will be executed
    "Old" integral transformation used (limited to max 255 basis functions)
    Wave function sections will be executed (SIRIUS module)
 --------------------------------------------------------------------------------


 Chosen parameters for *OPTIMI :
 -------------------------------

 Default 1st order method will be used:   BFGS update.
 Optimization will be performed in redundant internal coordinates (by default).
 Model Hessian will be used as initial Hessian.
 The model Hessian parameters of Roland Lindh will be used.


 Trust region method will be used to control step (default).

 Convergence threshold for gradient set to :      1.00D-04
 Convergence threshold for energy set to   :      1.00D-06
 Convergence threshold for step set to     :      1.00D-04
 Number of convergence criteria set to     :   2


              >>>>>>>>>>>>>>>>>>>>>>>>>>>>>>>>>>>>>>>>>>>>>>>>>>>>>
              >>>>>>>>>> 1st Order Geometry Optimization >>>>>>>>>>
              >>>>>>>>>>>>>>>>>>>>>>>>>>>>>>>>>>>>>>>>>>>>>>>>>>>>>


 Reading .mol file to determine number of atoms for parallel runs.


                      SYMADD: Requested addition of symmetry
                      --------------------------------------

 Symmetry test threshold:  5.00E-06

@   The molecule is centered at center of mass and rotated
@   so principal axes of inertia are along coordinate axes.

 Symmetry class found: C(2h)          

 The following elements were found:   Z  XY    


   ****************************************************************************
   *************** Output of molecule and basis set information ***************
   ****************************************************************************


    The two title cards from your ".mol" input:
    ------------------------------------------------------------------------
 1: CH4 Dimer                                                               
 2: ----------                                                              
    ------------------------------------------------------------------------

  Coordinates are entered in Angstrom and converted to atomic units.
          - Conversion factor : 1 bohr = 0.52917721 A

  Atomic type no.    1
  --------------------
  Nuclear charge:   6.00000
  Number of symmetry independent centers:    2
  Number of basis sets to read;    2
  Basis set file used for this atomic type with Z =   6 :
     "/home/magnus/Projects/dalton_devel/dalton/build_pedevel/basis/STO-3G"

  Atomic type no.    2
  --------------------
  Nuclear charge:   1.00000
  Number of symmetry independent centers:    8
  Number of basis sets to read;    2
  Basis set file used for this atomic type with Z =   1 :
     "/home/magnus/Projects/dalton_devel/dalton/build_pedevel/basis/STO-3G"


                      SYMADD: Requested addition of symmetry
                      --------------------------------------

 Symmetry test threshold:  5.00E-06

@   The molecule is centered at center of mass and rotated
@   so principal axes of inertia are along coordinate axes.

 Symmetry class found: C(2h)          

 Symmetry Independent Centres             
 ----------------------------
       6 :      3.51330512     0.00000000     0.00000000  Isotope  1
       1 :      2.82447228    -0.96975558     1.67911804  Isotope  1
       1 :      2.82503715     1.93928689     0.00000000  Isotope  1
       1 :      5.57144927    -0.00058773     0.00000000  Isotope  1

 The following elements were found:   Z  XY    


                         SYMGRP: Point group information
                         -------------------------------

@    Full point group is: C(2h)          
@    Represented as:      C2h

@  * The irrep name for each symmetry:    1: Ag     2: Au     3: Bu     4: Bg 

   * The point group was generated by:

      Reflection in the xy-plane
      Rotation about the z-axis

   * Group multiplication table

        |  E   C2z   i   Oxy
   -----+--------------------
     E  |  E   C2z   i   Oxy
    C2z | C2z   E   Oxy   i 
     i  |  i   Oxy   E   C2z
    Oxy | Oxy   i   C2z   E 

   * Character table

        |  E   C2z   i   Oxy
   -----+--------------------
    Ag  |   1    1    1    1
    Au  |   1    1   -1   -1
    Bu  |   1   -1   -1    1
    Bg  |   1   -1    1   -1

   * Direct product table

        | Ag   Au   Bu   Bg 
   -----+--------------------
    Ag  | Ag   Au   Bu   Bg 
    Au  | Au   Ag   Bg   Bu 
    Bu  | Bu   Bg   Ag   Au 
    Bg  | Bg   Bu   Au   Ag 


                                 Isotopic Masses
                                 ---------------

                           C   _1     12.000000
                           C   _2     12.000000
                           H   _1      1.007825
                           H   _2      1.007825
                           H   _3      1.007825
                           H   _4      1.007825
                           H   _1      1.007825
                           H   _2      1.007825
                           H   _1      1.007825
                           H   _2      1.007825

                       Total mass:    32.062600 amu
                       Natural abundance:  97.695 %

 Center-of-mass coordinates (a.u.):    0.000000    0.000000    0.000000


  Atoms and basis sets
  --------------------

  Number of atom types :    2
  Total number of atoms:   10

  Basis set used is "STO-3G" from the basis set library.

  label    atoms   charge   prim   cont     basis
  ----------------------------------------------------------------------
  C           2    6.0000    15     5      [6s3p|2s1p]                                        
  H           8    1.0000     3     1      [3s|1s]                                            
  ----------------------------------------------------------------------
  total:     10   20.0000    54    18
  ----------------------------------------------------------------------

  Threshold for neglecting AO integrals:  1.00D-12


  Cartesian Coordinates (a.u.)
  ----------------------------

  Total number of coordinates:   30
  C   / 1 :     1  x   3.5133051222    2  y   0.0000000000    3  z   0.0000000000
  C   / 2 :     4  x  -3.5133051222    5  y  -0.0000000000    6  z   0.0000000000
  H   / 1 :     7  x   2.8244722758    8  y  -0.9697555791    9  z   1.6791180381
  H   / 2 :    10  x   2.8244722758   11  y  -0.9697555791   12  z  -1.6791180381
  H   / 3 :    13  x  -2.8244722758   14  y   0.9697555791   15  z   1.6791180381
  H   / 4 :    16  x  -2.8244722758   17  y   0.9697555791   18  z  -1.6791180381
  H   / 1 :    19  x   2.8250371547   20  y   1.9392868937   21  z   0.0000000000
  H   / 2 :    22  x  -2.8250371547   23  y  -1.9392868937   24  z   0.0000000000
  H   / 1 :    25  x   5.5714492702   26  y  -0.0005877313   27  z   0.0000000000
  H   / 2 :    28  x  -5.5714492702   29  y   0.0005877313   30  z   0.0000000000


  Symmetry Coordinates
  --------------------

  Number of coordinates in each symmetry:     9    6    9    6

  Symmetry  Ag  ( 1)

    1   C     x    [  1  -    4 ]/2
    2   C     y    [  2  -    5 ]/2
    3   H     x    [  7  +   10  -   13  -   16 ]/4
    4   H     y    [  8  +   11  -   14  -   17 ]/4
    5   H     z    [  9  -   12  +   15  -   18 ]/4
    6   H     x    [ 19  -   22 ]/2
    7   H     y    [ 20  -   23 ]/2
    8   H     x    [ 25  -   28 ]/2
    9   H     y    [ 26  -   29 ]/2

  Symmetry  Au  ( 2)

   10   C     z    [  3  +    6 ]/2
   11   H     x    [  7  -   10  -   13  +   16 ]/4
   12   H     y    [  8  -   11  -   14  +   17 ]/4
   13   H     z    [  9  +   12  +   15  +   18 ]/4
   14   H     z    [ 21  +   24 ]/2
   15   H     z    [ 27  +   30 ]/2

  Symmetry  Bu  ( 3)

   16   C     x    [  1  +    4 ]/2
   17   C     y    [  2  +    5 ]/2
   18   H     x    [  7  +   10  +   13  +   16 ]/4
   19   H     y    [  8  +   11  +   14  +   17 ]/4
   20   H     z    [  9  -   12  -   15  +   18 ]/4
   21   H     x    [ 19  +   22 ]/2
   22   H     y    [ 20  +   23 ]/2
   23   H     x    [ 25  +   28 ]/2
   24   H     y    [ 26  +   29 ]/2

  Symmetry  Bg  ( 4)

   25   C     z    [  3  -    6 ]/2
   26   H     x    [  7  -   10  +   13  -   16 ]/4
   27   H     y    [  8  -   11  +   14  -   17 ]/4
   28   H     z    [  9  +   12  -   15  -   18 ]/4
   29   H     z    [ 21  -   24 ]/2
   30   H     z    [ 27  -   30 ]/2


   Interatomic separations (in Angstrom):
   --------------------------------------

            C   _1      C   _2      H   _1      H   _2      H   _3      H   _4
            ------      ------      ------      ------      ------      ------
 C   _1:    0.000000
 C   _2:    3.718322    0.000000
 H   _1:    1.088917    3.507263    0.000000
 H   _2:    1.088917    3.507263    1.777102    0.000000
 H   _3:    3.507263    1.088917    3.160578    3.625927    0.000000
 H   _4:    3.507263    1.088917    3.625927    3.160578    1.777102    0.000000
 H   _1:    1.088942    3.507587    1.777434    1.777434    3.160760    3.160760
 H   _2:    3.507587    1.088942    3.160760    3.160760    1.777434    1.777434
 H   _1:    1.089123    4.807445    1.779217    1.779217    4.559914    4.559914
 H   _2:    4.807445    1.089123    4.559914    4.559914    1.779217    1.779217

            H   _1      H   _2      H   _1      H   _2
            ------      ------      ------      ------
 H   _1:    0.000000
 H   _2:    3.626570    0.000000
 H   _1:    1.779318    4.560130    0.000000
 H   _2:    4.560130    1.779318    5.896568    0.000000


  Max    interatomic separation is    5.8966 Angstrom (   11.1429 Bohr)
  between atoms   10 and    9, "H   _2" and "H   _1".

  Min HX interatomic separation is    1.0889 Angstrom (    2.0578 Bohr)

  Min YX interatomic separation is    3.7183 Angstrom (    7.0266 Bohr)


  Bond distances (Angstrom):
  --------------------------

                  atom 1     atom 2       distance
                  ------     ------       --------
  bond distance:  H   _1     C   _1       1.088917
  bond distance:  H   _2     C   _1       1.088917
  bond distance:  H   _3     C   _2       1.088917
  bond distance:  H   _4     C   _2       1.088917
  bond distance:  H   _1     C   _1       1.088942
  bond distance:  H   _2     C   _2       1.088942
  bond distance:  H   _1     C   _1       1.089123
  bond distance:  H   _2     C   _2       1.089123


  Bond angles (degrees):
  ----------------------

                  atom 1     atom 2     atom 3         angle
                  ------     ------     ------         -----
  bond angle:     H   _1     C   _1     H   _2       109.372
  bond angle:     H   _1     C   _1     H   _1       109.400
  bond angle:     H   _1     C   _1     H   _1       109.549
  bond angle:     H   _2     C   _1     H   _1       109.400
  bond angle:     H   _2     C   _1     H   _1       109.549
  bond angle:     H   _1     C   _1     H   _1       109.557
  bond angle:     H   _3     C   _2     H   _4       109.372
  bond angle:     H   _3     C   _2     H   _2       109.400
  bond angle:     H   _3     C   _2     H   _2       109.549
  bond angle:     H   _4     C   _2     H   _2       109.400
  bond angle:     H   _4     C   _2     H   _2       109.549
  bond angle:     H   _2     C   _2     H   _2       109.557




 Principal moments of inertia (u*A**2) and principal axes
 --------------------------------------------------------

   IA       6.367194          1.000000   -0.000014    0.000000
   IB     117.169600          0.000014    1.000000    0.000000
   IC     117.171187          0.000000    0.000000    1.000000


 Rotational constants
 --------------------

               A                   B                   C

          79372.3300           4313.2263           4313.1679 MHz
            2.647576            0.143874            0.143872 cm-1


@  Nuclear repulsion energy :   41.000263966493 Hartree


  Symmetry Orbitals
  -----------------

  Number of orbitals in each symmetry:           7    2    7    2


  Symmetry  Ag ( 1)

    1     C        1s         1 +    2
    2     C        1s         3 +    4
    3     C        2px        5 -    6
    4     C        2py        7 -    8
    5     H        1s        11 +   12 +   13 +   14
    6     H        1s        15 +   16
    7     H        1s        17 +   18


  Symmetry  Au ( 2)

    8     C        2pz        9 +   10
    9     H        1s        11 -   12 +   13 -   14


  Symmetry  Bu ( 3)

   10     C        1s         1 -    2
   11     C        1s         3 -    4
   12     C        2px        5 +    6
   13     C        2py        7 +    8
   14     H        1s        11 +   12 -   13 -   14
   15     H        1s        15 -   16
   16     H        1s        17 -   18


  Symmetry  Bg ( 4)

   17     C        2pz        9 -   10
   18     H        1s        11 -   12 -   13 +   14

  Symmetries of electric field:  Bu (3)  Bu (3)  Au (2)

  Symmetries of magnetic field:  Bg (4)  Bg (4)  Ag (1)


                     .---------------------------------------.
                     | Starting in Integral Section (HERMIT) |
                     `---------------------------------------'



 ***************************************************************************************
 ****************** Output from **INTEGRALS input processing (HERMIT) ******************
 ***************************************************************************************


 - Using defaults, no **INTEGRALS input found

 Default print level:        1

 * Nuclear model: Point charge

 Calculation of one-electron Hamiltonian integrals.

 Center of mass  (bohr):      0.000000000000      0.000000000000      0.000000000000
 Operator center (bohr):      0.000000000000      0.000000000000      0.000000000000
 Gauge origin    (bohr):      0.000000000000      0.000000000000      0.000000000000
 Dipole origin   (bohr):      0.000000000000      0.000000000000      0.000000000000


     ************************************************************************
     ************************** Output from HERINT **************************
     ************************************************************************

 >>>> Total CPU  time used in HERMIT:   0.02 seconds
 >>>> Total wall time used in HERMIT:   0.02 seconds


                        .----------------------------------.
                        | End of Integral Section (HERMIT) |
                        `----------------------------------'



                   .--------------------------------------------.
                   | Starting in Wave Function Section (SIRIUS) |
                   `--------------------------------------------'



 Settings for DFT calculation:
 -----------------------------

     Default thresholds:                                       1.00D-09    1.00D-10    2.00D-12
     Default threshold for number of electrons:                1.00D-03
     DFT radial quadrature accuracy and ang. expansion order:              1.00D-13  35

 *** Output from Huckel module :

     Using EWMO model:          F
     Using EHT  model:          T
     Number of Huckel orbitals each symmetry:    7    2    7    2

 Huckel EHT eigenvalues for symmetry :  1
          -11.382326      -1.263513      -0.636550      -0.594308      -0.228049
           -0.204960      -0.204409

 Huckel EHT eigenvalues for symmetry :  2
           -0.624217      -0.203374

 Huckel EHT eigenvalues for symmetry :  3
          -11.380254      -1.192708      -0.624288      -0.579063      -0.221188
           -0.203352      -0.201174

 Huckel EHT eigenvalues for symmetry :  4
           -0.594237      -0.204430

 **********************************************************************
 *SIRIUS* a direct, restricted step, second order MCSCF program       *
 **********************************************************************

 
     Date and time (Linux)  : Tue Feb 24 17:21:59 2015
     Host name              : foeroyar                                

 Title lines from ".mol" input file:
     CH4 Dimer                                                               
     ----------                                                              

 Print level on unit LUPRI =   2 is   0
 Print level on unit LUW4  =   2 is   5

@    Restricted, closed shell Kohn-Sham DFT calculation.
 Fock matrices are calculated directly without use of integrals on disk.

 Initial molecular orbitals are obtained according to
 ".MOSTART EHT   " input option

     Wave function specification
     ============================
@    Wave function type        >>> KS-DFT <<<
@    Number of closed shell electrons          20
@    Number of electrons in active shells       0
@    Total charge of the molecule               0

@    Spin multiplicity and 2 M_S                1         0
@    Total number of symmetries                 4 (point group: C2h)
@    Reference state symmetry                   1 (irrep name : Ag )
 
     This is a DFT calculation of type: BLYP
 Weighted mixed functional:
                       LYP:    1.00000
                     Becke:    1.00000
                    Slater:    1.00000

     Orbital specifications
     ======================
@    Abelian symmetry species          All |    1    2    3    4
@                                          |  Ag   Au   Bu   Bg 
                                       --- |  ---  ---  ---  ---
@    Total number of orbitals           18 |    7    2    7    2
@    Number of basis functions          18 |    7    2    7    2

      ** Automatic occupation of RKS orbitals **

      -- Initial occupation of symmetries is determined from extended Huckel guess.           
      -- Initial occupation of symmetries is :
@    Occupied SCF orbitals              10 |    4    1    4    1

     Maximum number of Fock   iterations      0
     Maximum number of DIIS   iterations     60
     Maximum number of QC-SCF iterations     60
     Threshold for SCF convergence     1.00D-06
 
     This is a DFT calculation of type: BLYP
 Weighted mixed functional:
                       LYP:    1.00000
                     Becke:    1.00000
                    Slater:    1.00000


 ***********************************************
 ***** DIIS acceleration of SCF iterations *****
 ***********************************************

 C1-DIIS algorithm; max error vectors =    8


                      DFT-D Empirical Dispersion Correction
                      -------------------------------------

       Running DFT-D Version :     3
                   Reference : S. Grimme, J. Antony, S. Ehrlich and H. Krieg, 
                               J. Chem. Phys. 132 (2010), 154104
       Becke-Johnson Damping :    F
                3-body terms :    F


                      DFT-D3 Functional Dependent Parameters
                      --------------------------------------

      s_6 =       1.000000000000     sr_6 =       1.094000000000
      s_8 =       1.682000000000     sr_8 =       1.000000000000
      alp =      14.000000000000


                          +------------------------------+
                          ! Dispersion Energy Correction !
                          +------------------------------+

                      E_disp :         -0.002241834373

 Automatic occupation of symmetries with  20 electrons.

 Iter     Total energy    Error norm  Delta(E)    SCF occupation
 -----------------------------------------------------------------------------
   1  Screening settings (-IFTHRS, JTDIIS, DIFDEN, times)   -6    1    F  4.28D-02  4.30D-02
      K-S energy, electrons, error :    -13.692627433244  20.0000258231    2.58D-05
@  1  -79.8436439967       2.03D+00  -7.98D+01     4   1   4   1
      Virial theorem: -V/T =      2.015517
@      MULPOP C   _1  0.37; C   _2  0.37; H   _1 -0.09; H   _2 -0.09; H   _3 -0.09; H   _4 -0.09; H   _1 -0.09; H   _2 -0.09; H   _1 -0.10; H   _2 -0.10; 
@
 -----------------------------------------------------------------------------
   2  Screening settings (-IFTHRS, JTDIIS, DIFDEN, times)   -6    2    F  3.40D-02  3.40D-02
      K-S energy, electrons, error :    -13.923208631774  20.0000199580    2.00D-05
@  2  -79.8922698489       1.13D+00  -4.86D-02     4   1   4   1
      Virial theorem: -V/T =      2.000415
@      MULPOP C   _1 -0.97; C   _2 -0.97; H   _1  0.24; H   _2  0.24; H   _3  0.24; H   _4  0.24; H   _1  0.24; H   _2  0.24; H   _1  0.24; H   _2  0.24; 
@
 -----------------------------------------------------------------------------
   3  Screening settings (-IFTHRS, JTDIIS, DIFDEN, times)   -6    3    F  3.59D-02  3.60D-02
      K-S energy, electrons, error :    -13.713799003215  20.0000238468    2.38D-05
@  3  -79.9735415349       4.74D-01  -8.13D-02     4   1   4   1
      Virial theorem: -V/T =      2.020078
@      MULPOP C   _1 -0.05; C   _2 -0.05; H   _1  0.01; H   _2  0.01; H   _3  0.01; H   _4  0.01; H   _1  0.01; H   _2  0.01; H   _1  0.01; H   _2  0.01; 
@
 -----------------------------------------------------------------------------
   4  Screening settings (-IFTHRS, JTDIIS, DIFDEN, times)   -7    4    F  3.93D-02  3.90D-02
      K-S energy, electrons, error :    -13.767482483210  20.0000227034    2.27D-05
@  4  -79.9906971859       2.05D-03  -1.72D-02     4   1   4   1
      Virial theorem: -V/T =      2.014998
@      MULPOP C   _1 -0.32; C   _2 -0.32; H   _1  0.08; H   _2  0.08; H   _3  0.08; H   _4  0.08; H   _1  0.08; H   _2  0.08; H   _1  0.08; H   _2  0.08; 
@
 -----------------------------------------------------------------------------
   5  Screening settings (-IFTHRS, JTDIIS, DIFDEN, times)   -9    5    F  4.30D-02  4.30D-02
      K-S energy, electrons, error :    -13.767634868486  20.0000226999    2.27D-05
@  5  -79.9906974946       1.03D-04  -3.09D-07     4   1   4   1
      Virial theorem: -V/T =      2.014983
@      MULPOP C   _1 -0.32; C   _2 -0.32; H   _1  0.08; H   _2  0.08; H   _3  0.08; H   _4  0.08; H   _1  0.08; H   _2  0.08; H   _1  0.08; H   _2  0.08; 
@
 -----------------------------------------------------------------------------
   6  Screening settings (-IFTHRS, JTDIIS, DIFDEN, times)  -11    6    F  4.49D-02  4.50D-02
      K-S energy, electrons, error :    -13.767635938095  20.0000226998    2.27D-05
@  6  -79.9906974956       1.78D-05  -9.94D-10     4   1   4   1
      Virial theorem: -V/T =      2.014982
@      MULPOP C   _1 -0.32; C   _2 -0.32; H   _1  0.08; H   _2  0.08; H   _3  0.08; H   _4  0.08; H   _1  0.08; H   _2  0.08; H   _1  0.08; H   _2  0.08; 
@
 -----------------------------------------------------------------------------
   7  Screening settings (-IFTHRS, JTDIIS, DIFDEN, times)  -11    7    F  4.40D-02  4.40D-02
      K-S energy, electrons, error :    -13.767635983685  20.0000226998    2.27D-05
@  7  -79.9906974957       1.90D-06  -3.48D-11     4   1   4   1
      Virial theorem: -V/T =      2.014982
@      MULPOP C   _1 -0.32; C   _2 -0.32; H   _1  0.08; H   _2  0.08; H   _3  0.08; H   _4  0.08; H   _1  0.08; H   _2  0.08; H   _1  0.08; H   _2  0.08; 
@
 -----------------------------------------------------------------------------
   8  Screening settings (-IFTHRS, JTDIIS, DIFDEN, times)  -11    8    F  4.40D-02  4.40D-02
      K-S energy, electrons, error :    -13.767635979811  20.0000226998    2.27D-05
@  8  -79.9906974957       1.83D-07  -4.26D-13     4   1   4   1

@ *** DIIS converged in   8 iterations !
@     Converged SCF energy, gradient:    -79.990697495658    1.83D-07
    - total time used in SIRFCK :              0.00 seconds


 *** SCF orbital energy analysis ***

 Number of electrons :   20
 Orbital occupations :    4    1    4    1

 Sym       Kohn-Sham orbital energies

1 Ag     -9.73344704    -0.58892054    -0.31223335    -0.30523826     0.41309295
          0.41833689     0.43908106

2 Au     -0.30951139     0.40962366

3 Bu     -9.73344880    -0.58446414    -0.30957025    -0.30304046     0.40971767
          0.41579998     0.46282655

4 Bg     -0.30517790     0.41824309

    E(LUMO) :     0.40962366 au (symmetry 2)
  - E(HOMO) :    -0.30304046 au (symmetry 3)
  ------------------------------------------
    gap     :     0.71266412 au

 >>> Writing SIRIFC interface file

 >>>> CPU and wall time for SCF :       5.211       5.209


                       .-----------------------------------.
                       | >>> Final results from SIRIUS <<< |
                       `-----------------------------------'


@    Spin multiplicity:           1
@    Spatial symmetry:            1 ( irrep  Ag  in C2h )
@    Total charge of molecule:    0

@    Final DFT energy:            -79.990697495658                 
@    Nuclear repulsion:            41.000263966493
@    Electronic energy:          -120.990961462150

@    Final gradient norm:           0.000000182961

 
     Date and time (Linux)  : Tue Feb 24 17:22:04 2015
     Host name              : foeroyar                                

File label for MO orbitals:  24Feb15   FOCKDIIS

 (Only coefficients >0.0100 are printed.)

 Molecular orbitals for symmetry species 1  (Ag )
 ------------------------------------------------

    Orbital         1        2        3        4        5        6        7
   1 C   :1s     0.7000  -0.1584  -0.0033  -0.0000  -0.0001   0.0005   0.1817
   2 C   :1s     0.0342   0.4456   0.0121   0.0001   0.0010  -0.0031  -1.1395
   3 C   :2px   -0.0000  -0.0034   0.4076  -0.0002  -0.7765  -0.0023   0.0057
   4 C   :2py   -0.0000  -0.0000   0.0002   0.4121   0.0023  -0.7752   0.0022
   5 H   :1s    -0.0069   0.1271  -0.1207  -0.1712  -0.2494  -0.3557   0.4637
   6 H   :1s    -0.0069   0.1271  -0.1203   0.3427  -0.2523   0.7130   0.4607
   7 H   :1s    -0.0069   0.1241   0.3618  -0.0002   0.7500   0.0034   0.4721

 Molecular orbitals for symmetry species 2  (Au )
 ------------------------------------------------

    Orbital         1        2
   1 C   :2pz    0.4064  -0.7777
   2 H   :1s     0.2979   0.6089

 Molecular orbitals for symmetry species 3  (Bu )
 ------------------------------------------------

    Orbital         1        2        3        4        5        6        7
   1 C   :1s     0.7000  -0.1599  -0.0000   0.0033   0.0002   0.0053   0.1805
   2 C   :1s     0.0343   0.4511   0.0001  -0.0121  -0.0012  -0.0333  -1.1442
   3 C   :2px    0.0000   0.0036   0.0002   0.4100   0.0008  -0.7776   0.0182
   4 C   :2py   -0.0000  -0.0000   0.4064  -0.0002  -0.7778  -0.0008   0.0010
   5 H   :1s    -0.0070   0.1255  -0.1720  -0.1222  -0.3507  -0.2370   0.4844
   6 H   :1s    -0.0070   0.1255   0.3440  -0.1224   0.7039  -0.2357   0.4832
   7 H   :1s    -0.0069   0.1289   0.0001   0.3668  -0.0004   0.7640   0.4453

 Molecular orbitals for symmetry species 4  (Bg )
 ------------------------------------------------

    Orbital         1        2
   1 C   :2pz    0.4122  -0.7751
   2 H   :1s     0.2967   0.6170



 >>>> Total CPU  time used in SIRIUS :      5.21 seconds
 >>>> Total wall time used in SIRIUS :      5.21 seconds

 
     Date and time (Linux)  : Tue Feb 24 17:22:04 2015
     Host name              : foeroyar                                


                     .---------------------------------------.
                     | End of Wave Function Section (SIRIUS) |
                     `---------------------------------------'


     Order of analytical energy-derivatives available:   1
     This will be the default.

 Center of mass dipole origin  :    0.000000    0.000000    0.000000

 Center of mass gauge origin   :    0.000000    0.000000    0.000000


                 .------------------------------------------------.
                 | Starting in Static Property Section (ABACUS) - |
                 `------------------------------------------------'


 
     Date and time (Linux)  : Tue Feb 24 17:22:04 2015
     Host name              : foeroyar                                


                      DFT-D Empirical Dispersion Correction
                      -------------------------------------

       Running DFT-D Version :     3
                   Reference : S. Grimme, J. Antony, S. Ehrlich and H. Krieg, 
                               J. Chem. Phys. 132 (2010), 154104
       Becke-Johnson Damping :    F
                3-body terms :    F


                      DFT-D3 Functional Dependent Parameters
                      --------------------------------------

      s_6 =       1.000000000000     sr_6 =       1.094000000000
      s_8 =       1.682000000000     sr_8 =       1.000000000000
      alp =      14.000000000000


                          +------------------------------+
                          ! Dispersion Energy Correction !
                          +------------------------------+

                      E_disp :         -0.002241834373


  Symmetry Coordinates
  --------------------

  Number of coordinates in each symmetry:     9    6    9    6

  Symmetry  Ag  ( 1)

    1   C     x    [  1  -    4 ]/2
    2   C     y    [  2  -    5 ]/2
    3   H     x    [  7  +   10  -   13  -   16 ]/4
    4   H     y    [  8  +   11  -   14  -   17 ]/4
    5   H     z    [  9  -   12  +   15  -   18 ]/4
    6   H     x    [ 19  -   22 ]/2
    7   H     y    [ 20  -   23 ]/2
    8   H     x    [ 25  -   28 ]/2
    9   H     y    [ 26  -   29 ]/2

  Symmetry  Au  ( 2)

   10   C     z    [  3  +    6 ]/2
   11   H     x    [  7  -   10  -   13  +   16 ]/4
   12   H     y    [  8  -   11  -   14  +   17 ]/4
   13   H     z    [  9  +   12  +   15  +   18 ]/4
   14   H     z    [ 21  +   24 ]/2
   15   H     z    [ 27  +   30 ]/2

  Symmetry  Bu  ( 3)

   16   C     x    [  1  +    4 ]/2
   17   C     y    [  2  +    5 ]/2
   18   H     x    [  7  +   10  +   13  +   16 ]/4
   19   H     y    [  8  +   11  +   14  +   17 ]/4
   20   H     z    [  9  -   12  -   15  +   18 ]/4
   21   H     x    [ 19  +   22 ]/2
   22   H     y    [ 20  +   23 ]/2
   23   H     x    [ 25  +   28 ]/2
   24   H     y    [ 26  +   29 ]/2

  Symmetry  Bg  ( 4)

   25   C     z    [  3  -    6 ]/2
   26   H     x    [  7  -   10  +   13  -   16 ]/4
   27   H     y    [  8  -   11  +   14  -   17 ]/4
   28   H     z    [  9  +   12  -   15  -   18 ]/4
   29   H     z    [ 21  -   24 ]/2
   30   H     z    [ 27  -   30 ]/2


   ***************************************************************************
   ************************ FINAL RESULTS from ABACUS ************************
   ***************************************************************************


 
     Date and time (Linux)  : Tue Feb 24 17:22:06 2015
     Host name              : foeroyar                                


                             Molecular geometry (au)
                             -----------------------

 C   _1     3.5133051222            0.0000000000            0.0000000000
 C   _2    -3.5133051222           -0.0000000000            0.0000000000
 H   _1     2.8244722758           -0.9697555791            1.6791180381
 H   _2     2.8244722758           -0.9697555791           -1.6791180381
 H   _3    -2.8244722758            0.9697555791            1.6791180381
 H   _4    -2.8244722758            0.9697555791           -1.6791180381
 H   _1     2.8250371547            1.9392868937            0.0000000000
 H   _2    -2.8250371547           -1.9392868937            0.0000000000
 H   _1     5.5714492702           -0.0005877313            0.0000000000
 H   _2    -5.5714492702            0.0005877313            0.0000000000





                        Molecular wave function and energy
                        ----------------------------------

     Spatial symmetry   1 ( Ag  )
     Spin multiplicity  1
     2 * M_S            0
     State number       1
     Total charge       0

     Total energy        -79.9906974957 au (Hartrees)
                         -2176.65760278 eV
                           -210015.5439 kJ/mol
                            -50194.9197 kcal/mol


                   Scalar Breit-Pauli relativistic corrections
                   -------------------------------------------

     Darwin correction:                          0.0775849075 au
     Mass-velocity correction:                  -0.0978097490 au

     Total relativistic correction:             -0.0202248415 au (0.0253%)
     Non-relativistic + relativistic energy:   -80.0109223371 au



      (Note that these corrections are NOT included in the results below.)


                             Molecular gradient (au)
                             -----------------------

                         C   x      0.0005287552
                         C   y      0.0000616337
                         H   x      0.0162600872
                         H   y      0.0222956340
                         H   z     -0.0388771637
                         H   x      0.0081192363
                         H   y     -0.0223458834
                         H   x     -0.0236534954
                         H   y     -0.0000119031



 C   _1     0.0002643776            0.0000308169            0.0000000000
 C   _2    -0.0002643776           -0.0000308169            0.0000000000
 H   _1     0.0040650218            0.0055739085           -0.0097192909
 H   _2     0.0040650218            0.0055739085            0.0097192909
 H   _3    -0.0040650218           -0.0055739085           -0.0097192909
 H   _4    -0.0040650218           -0.0055739085            0.0097192909
 H   _1     0.0040596181           -0.0111729417            0.0000000000
 H   _2    -0.0040596181            0.0111729417            0.0000000000
 H   _1    -0.0118267477           -0.0000059516            0.0000000000
 H   _2     0.0118267477            0.0000059516            0.0000000000





                                  Dipole moment
                                  -------------

                 au               Debye          C m (/(10**-30)
              0.000000           0.000000           0.000000


                             Dipole moment components
                             ------------------------

                    All dipole components are zero by symmetry


   Units:   1 a.u. =   2.54175 Debye 
            1 a.u. =   8.47835 (10**-30) C m (SI)




   Interatomic separations (in Angstrom):
   --------------------------------------

            C   _1      C   _2      H   _1      H   _2      H   _3      H   _4
            ------      ------      ------      ------      ------      ------
 C   _1:    0.000000
 C   _2:    3.718322    0.000000
 H   _1:    1.088917    3.507263    0.000000
 H   _2:    1.088917    3.507263    1.777102    0.000000
 H   _3:    3.507263    1.088917    3.160578    3.625927    0.000000
 H   _4:    3.507263    1.088917    3.625927    3.160578    1.777102    0.000000
 H   _1:    1.088942    3.507587    1.777434    1.777434    3.160760    3.160760
 H   _2:    3.507587    1.088942    3.160760    3.160760    1.777434    1.777434
 H   _1:    1.089123    4.807445    1.779217    1.779217    4.559914    4.559914
 H   _2:    4.807445    1.089123    4.559914    4.559914    1.779217    1.779217

            H   _1      H   _2      H   _1      H   _2
            ------      ------      ------      ------
 H   _1:    0.000000
 H   _2:    3.626570    0.000000
 H   _1:    1.779318    4.560130    0.000000
 H   _2:    4.560130    1.779318    5.896568    0.000000


  Max    interatomic separation is    5.8966 Angstrom (   11.1429 Bohr)
  between atoms   10 and    9, "H   _2" and "H   _1".

  Min HX interatomic separation is    1.0889 Angstrom (    2.0578 Bohr)

  Min YX interatomic separation is    3.7183 Angstrom (    7.0266 Bohr)


  Bond distances (Angstrom):
  --------------------------

                  atom 1     atom 2       distance
                  ------     ------       --------
  bond distance:  H   _1     C   _1       1.088917
  bond distance:  H   _2     C   _1       1.088917
  bond distance:  H   _3     C   _2       1.088917
  bond distance:  H   _4     C   _2       1.088917
  bond distance:  H   _1     C   _1       1.088942
  bond distance:  H   _2     C   _2       1.088942
  bond distance:  H   _1     C   _1       1.089123
  bond distance:  H   _2     C   _2       1.089123


  Bond angles (degrees):
  ----------------------

                  atom 1     atom 2     atom 3         angle
                  ------     ------     ------         -----
  bond angle:     H   _1     C   _1     H   _2       109.372
  bond angle:     H   _1     C   _1     H   _1       109.400
  bond angle:     H   _1     C   _1     H   _1       109.549
  bond angle:     H   _2     C   _1     H   _1       109.400
  bond angle:     H   _2     C   _1     H   _1       109.549
  bond angle:     H   _1     C   _1     H   _1       109.557
  bond angle:     H   _3     C   _2     H   _4       109.372
  bond angle:     H   _3     C   _2     H   _2       109.400
  bond angle:     H   _3     C   _2     H   _2       109.549
  bond angle:     H   _4     C   _2     H   _2       109.400
  bond angle:     H   _4     C   _2     H   _2       109.549
  bond angle:     H   _2     C   _2     H   _2       109.557




 CPU time statistics for ABACUS
 ------------------------------

 ONEINT     00:00:01      92 %

 TOTAL      00:00:01     100 %


 >>>> Total CPU  time used in ABACUS:   1.46 seconds
 >>>> Total wall time used in ABACUS:   1.46 seconds


                   .-------------------------------------------.
                   | End of Static Property Section (ABACUS) - |
                   `-------------------------------------------'


Building simple model Hessian by Roland Lindh ...

Initial model Hessian in internal coordinates has been calculated


           :::::::::::::::::::::::::::::::::::::::::::::::::::::::::::
           ::::::::::::::: Optimization Control Center :::::::::::::::
           :::::::::::::::::::::::::::::::::::::::::::::::::::::::::::



                                Next geometry (au)
                                ------------------

 C   _1     3.2897888955           -0.0192385081            0.0000000000
 C   _2    -3.2897888955            0.0192385081            0.0000000000
 H   _1     2.6207233388           -1.0204981150            1.6988945569
 H   _2     2.6207233388           -1.0204981150           -1.6988945569
 H   _3    -2.6207233388            1.0204981150            1.6988945569
 H   _4    -2.6207233388            1.0204981150           -1.6988945569
 H   _1     2.5347304354            1.9221616659            0.0000000000
 H   _2    -2.5347304354           -1.9221616659            0.0000000000
 H   _1     5.3721637424            0.0415762304            0.0000000000
 H   _2    -5.3721637424           -0.0415762304            0.0000000000





                             Optimization information
                             ------------------------

 Iteration number               :       0
 End of optimization            :       F 
 Energy at this geometry is     :     -79.990697
 Norm of gradient               :       0.033627
 Norm of step                   :       0.500008
 Updated trust radius           :       0.500000
 Total effective Hessian index  :       0




 **************************************************************************************
 ****************** Output of molecule and basis set info suppressed ******************
 **************************************************************************************



                     .---------------------------------------.
                     | Starting in Integral Section (HERMIT) |
                     `---------------------------------------'



 ***************************************************************************************
 ****************** Output from **INTEGRALS input processing (HERMIT) ******************
 ***************************************************************************************


 - Using defaults, no **INTEGRALS input found

 Default print level:       -1

 * Nuclear model: Point charge

 Calculation of one-electron Hamiltonian integrals.

 Center of mass  (bohr):      0.000000000000      0.000000000000      0.000000000000
 Operator center (bohr):      0.000000000000      0.000000000000      0.000000000000
 Gauge origin    (bohr):      0.000000000000      0.000000000000      0.000000000000
 Dipole origin   (bohr):      0.000000000000      0.000000000000      0.000000000000
 >>>> Total CPU  time used in HERMIT:   0.01 seconds
 >>>> Total wall time used in HERMIT:   0.01 seconds


                        .----------------------------------.
                        | End of Integral Section (HERMIT) |
                        `----------------------------------'



                   .--------------------------------------------.
                   | Starting in Wave Function Section (SIRIUS) |
                   `--------------------------------------------'


 **********************************************************************
 *SIRIUS* a direct, restricted step, second order MCSCF program       *
 **********************************************************************

 (Wave function specification suppressed here, see output above for initial geometry.)


 ***********************************************
 ***** DIIS acceleration of SCF iterations *****
 ***********************************************

 C1-DIIS algorithm; max error vectors =    8


                      DFT-D Empirical Dispersion Correction
                      -------------------------------------

       Running DFT-D Version :     3
                   Reference : S. Grimme, J. Antony, S. Ehrlich and H. Krieg, 
                               J. Chem. Phys. 132 (2010), 154104
       Becke-Johnson Damping :    F
                3-body terms :    F


                      DFT-D3 Functional Dependent Parameters
                      --------------------------------------

      s_6 =       1.000000000000     sr_6 =       1.094000000000
      s_8 =       1.682000000000     sr_8 =       1.000000000000
      alp =      14.000000000000


                          +------------------------------+
                          ! Dispersion Energy Correction !
                          +------------------------------+

                      E_disp :         -0.003059825688

 Iter      Total energy        Error norm    Delta(E)  DIIS dim.
 -----------------------------------------------------------------------------
   1  Screening settings (-IFTHRS, JTDIIS, DIFDEN, times)  -11    1    F  4.47D-02  4.50D-02
      K-S energy, electrons, error :    -13.744873756075  19.9999987007   -1.30D-06
@  1    -79.9918226841        5.49510D-02   -1.13D-03    1
      Virial theorem: -V/T =      2.015948
@      MULPOP C   _1 -0.32; C   _2 -0.32; H   _1  0.08; H   _2  0.08; H   _3  0.08; H   _4  0.08; H   _1  0.08; H   _2  0.08; H   _1  0.08; H   _2  0.08; 
@
 -----------------------------------------------------------------------------
   2  Screening settings (-IFTHRS, JTDIIS, DIFDEN, times)   -8    2    F  4.35D-02  4.40D-02
      K-S energy, electrons, error :    -13.740583288382  19.9999986387   -1.36D-06
@  2    -79.9921802806        2.57691D-02   -3.58D-04    2
      Virial theorem: -V/T =      2.016209
@      MULPOP C   _1 -0.29; C   _2 -0.29; H   _1  0.07; H   _2  0.07; H   _3  0.07; H   _4  0.07; H   _1  0.07; H   _2  0.07; H   _1  0.07; H   _2  0.07; 
@
 -----------------------------------------------------------------------------
   3  Screening settings (-IFTHRS, JTDIIS, DIFDEN, times)   -8    3    F  4.42D-02  4.40D-02
      K-S energy, electrons, error :    -13.745444513506  19.9999986383   -1.36D-06
@  3    -79.9922143591        1.49419D-02   -3.41D-05    3
      Virial theorem: -V/T =      2.015752
@      MULPOP C   _1 -0.31; C   _2 -0.31; H   _1  0.08; H   _2  0.08; H   _3  0.08; H   _4  0.08; H   _1  0.08; H   _2  0.08; H   _1  0.08; H   _2  0.08; 
@
 -----------------------------------------------------------------------------
   4  Screening settings (-IFTHRS, JTDIIS, DIFDEN, times)   -8    4    F  4.35D-02  4.30D-02
      K-S energy, electrons, error :    -13.743647712166  19.9999986383   -1.36D-06
@  4    -79.9922314793        4.30426D-05   -1.71D-05    4
      Virial theorem: -V/T =      2.015922
@      MULPOP C   _1 -0.30; C   _2 -0.30; H   _1  0.08; H   _2  0.08; H   _3  0.08; H   _4  0.08; H   _1  0.08; H   _2  0.08; H   _1  0.08; H   _2  0.08; 
@
 -----------------------------------------------------------------------------
   5  Screening settings (-IFTHRS, JTDIIS, DIFDEN, times)  -11    5    F  5.36D-02  5.30D-02
      K-S energy, electrons, error :    -13.743646253293  19.9999986384   -1.36D-06
@  5    -79.9922314815        6.91665D-06   -2.22D-09    5
      Virial theorem: -V/T =      2.015922
@      MULPOP C   _1 -0.30; C   _2 -0.30; H   _1  0.08; H   _2  0.08; H   _3  0.08; H   _4  0.08; H   _1  0.08; H   _2  0.08; H   _1  0.08; H   _2  0.08; 
@
 -----------------------------------------------------------------------------
   6  Screening settings (-IFTHRS, JTDIIS, DIFDEN, times)  -11    6    F  4.55D-02  4.50D-02
      K-S energy, electrons, error :    -13.743646160057  19.9999986383   -1.36D-06
@  6    -79.9922314815        1.60197D-06   -5.30D-12    6
      Virial theorem: -V/T =      2.015922
@      MULPOP C   _1 -0.30; C   _2 -0.30; H   _1  0.08; H   _2  0.08; H   _3  0.08; H   _4  0.08; H   _1  0.08; H   _2  0.08; H   _1  0.08; H   _2  0.08; 
@
 -----------------------------------------------------------------------------
   7  Screening settings (-IFTHRS, JTDIIS, DIFDEN, times)  -11    7    F  4.49D-02  4.40D-02
      K-S energy, electrons, error :    -13.743646155622  19.9999986383   -1.36D-06
@  7    -79.9922314815        4.17263D-07   -2.84D-13    7

@ *** DIIS converged in   7 iterations !
@     Converged SCF energy, gradient:    -79.992231481513    4.17D-07
    - total time used in SIRFCK :              0.00 seconds


 *** SCF orbital energy analysis ***

 Number of electrons :   20
 Orbital occupations :    4    1    4    1

 Sym       Kohn-Sham orbital energies

1 Ag     -9.73407205    -0.58495483    -0.31080560    -0.29953601     0.40147714
          0.41039365     0.41804031

2 Au     -0.30679985     0.39886927

3 Bu     -9.73407820    -0.57766603    -0.30718492    -0.29634994     0.39702897
          0.40719728     0.45047642

4 Bg     -0.29992291     0.40864251

    E(LUMO) :     0.39702897 au (symmetry 3)
  - E(HOMO) :    -0.29634994 au (symmetry 3)
  ------------------------------------------
    gap     :     0.69337890 au

 >>> Writing SIRIFC interface file

 >>>> CPU and wall time for SCF :       4.789       4.786


                       .-----------------------------------.
                       | >>> Final results from SIRIUS <<< |
                       `-----------------------------------'


@    Spin multiplicity:           1
@    Spatial symmetry:            1 ( irrep  Ag  in C2h )
@    Total charge of molecule:    0

@    Final DFT energy:            -79.992231481513                 
@    Nuclear repulsion:            41.605975495934
@    Electronic energy:          -121.598206977447

@    Final gradient norm:           0.000000417263

 
     Date and time (Linux)  : Tue Feb 24 17:22:11 2015
     Host name              : foeroyar                                



 >>>> Total CPU  time used in SIRIUS :      4.79 seconds
 >>>> Total wall time used in SIRIUS :      4.79 seconds

 
     Date and time (Linux)  : Tue Feb 24 17:22:11 2015
     Host name              : foeroyar                                


                     .---------------------------------------.
                     | End of Wave Function Section (SIRIUS) |
                     `---------------------------------------'

 Trust radius increased due to good ratio.
 Updated trust radius   0.60001

     Order of analytical energy-derivatives available:   1
     This will be the default.

 Center of mass dipole origin  :    0.000000    0.000000    0.000000

 Center of mass gauge origin   :    0.000000    0.000000    0.000000


                 .------------------------------------------------.
                 | Starting in Static Property Section (ABACUS) - |
                 `------------------------------------------------'


 
     Date and time (Linux)  : Tue Feb 24 17:22:11 2015
     Host name              : foeroyar                                


                      DFT-D Empirical Dispersion Correction
                      -------------------------------------

       Running DFT-D Version :     3
                   Reference : S. Grimme, J. Antony, S. Ehrlich and H. Krieg, 
                               J. Chem. Phys. 132 (2010), 154104
       Becke-Johnson Damping :    F
                3-body terms :    F


                      DFT-D3 Functional Dependent Parameters
                      --------------------------------------

      s_6 =       1.000000000000     sr_6 =       1.094000000000
      s_8 =       1.682000000000     sr_8 =       1.000000000000
      alp =      14.000000000000


                          +------------------------------+
                          ! Dispersion Energy Correction !
                          +------------------------------+

                      E_disp :         -0.003059825688


  Symmetry Coordinates
  --------------------

  Number of coordinates in each symmetry:     9    6    9    6

  Symmetry  Ag  ( 1)

    1   C     x    [  1  -    4 ]/2
    2   C     y    [  2  -    5 ]/2
    3   H     x    [  7  +   10  -   13  -   16 ]/4
    4   H     y    [  8  +   11  -   14  -   17 ]/4
    5   H     z    [  9  -   12  +   15  -   18 ]/4
    6   H     x    [ 19  -   22 ]/2
    7   H     y    [ 20  -   23 ]/2
    8   H     x    [ 25  -   28 ]/2
    9   H     y    [ 26  -   29 ]/2

  Symmetry  Au  ( 2)

   10   C     z    [  3  +    6 ]/2
   11   H     x    [  7  -   10  -   13  +   16 ]/4
   12   H     y    [  8  -   11  -   14  +   17 ]/4
   13   H     z    [  9  +   12  +   15  +   18 ]/4
   14   H     z    [ 21  +   24 ]/2
   15   H     z    [ 27  +   30 ]/2

  Symmetry  Bu  ( 3)

   16   C     x    [  1  +    4 ]/2
   17   C     y    [  2  +    5 ]/2
   18   H     x    [  7  +   10  +   13  +   16 ]/4
   19   H     y    [  8  +   11  +   14  +   17 ]/4
   20   H     z    [  9  -   12  -   15  +   18 ]/4
   21   H     x    [ 19  +   22 ]/2
   22   H     y    [ 20  +   23 ]/2
   23   H     x    [ 25  +   28 ]/2
   24   H     y    [ 26  +   29 ]/2

  Symmetry  Bg  ( 4)

   25   C     z    [  3  -    6 ]/2
   26   H     x    [  7  -   10  +   13  -   16 ]/4
   27   H     y    [  8  -   11  +   14  -   17 ]/4
   28   H     z    [  9  +   12  -   15  -   18 ]/4
   29   H     z    [ 21  -   24 ]/2
   30   H     z    [ 27  -   30 ]/2


   ***************************************************************************
   ************************ FINAL RESULTS from ABACUS ************************
   ***************************************************************************


 
     Date and time (Linux)  : Tue Feb 24 17:22:13 2015
     Host name              : foeroyar                                


 CPU time statistics for ABACUS
 ------------------------------

 ONEINT     00:00:02      94 %

 TOTAL      00:00:02     100 %


 >>>> Total CPU  time used in ABACUS:   1.97 seconds
 >>>> Total wall time used in ABACUS:   1.97 seconds


                   .-------------------------------------------.
                   | End of Static Property Section (ABACUS) - |
                   `-------------------------------------------'



           :::::::::::::::::::::::::::::::::::::::::::::::::::::::::::
           ::::::::::::::: Optimization Control Center :::::::::::::::
           :::::::::::::::::::::::::::::::::::::::::::::::::::::::::::



                                Next geometry (au)
                                ------------------

 C   _1     3.5689421787            0.0260366439            0.0000000000
 C   _2    -3.5689421787           -0.0260366439            0.0000000000
 H   _1     2.8290212390           -0.9340244450            1.7086511456
 H   _2     2.8290212390           -0.9340244450           -1.7086511456
 H   _3    -2.8290212390            0.9340244450            1.7086511456
 H   _4    -2.8290212390            0.9340244450           -1.7086511456
 H   _1     2.9388613672            2.0256741270            0.0000000000
 H   _2    -2.9388613672           -2.0256741270            0.0000000000
 H   _1     5.6669099026           -0.0526158559            0.0000000000
 H   _2    -5.6669099026            0.0526158559            0.0000000000





                             Optimization information
                             ------------------------

 Iteration number               :       1
 End of optimization            :       F 
 Energy at this geometry is     :     -79.992231
 Energy change from last geom.  :      -0.001534
 Predicted change               :      -0.001452
 Ratio, actual/predicted change :       1.056672
 Norm of gradient               :       0.004854
 Norm of step                   :       0.599969
 Updated trust radius           :       0.600009
 Total effective Hessian index  :       0




 **************************************************************************************
 ****************** Output of molecule and basis set info suppressed ******************
 **************************************************************************************



                     .---------------------------------------.
                     | Starting in Integral Section (HERMIT) |
                     `---------------------------------------'



 ***************************************************************************************
 ****************** Output from **INTEGRALS input processing (HERMIT) ******************
 ***************************************************************************************


 - Using defaults, no **INTEGRALS input found

 Default print level:       -1

 * Nuclear model: Point charge

 Calculation of one-electron Hamiltonian integrals.

 Center of mass  (bohr):      0.000000000000      0.000000000000      0.000000000000
 Operator center (bohr):      0.000000000000      0.000000000000      0.000000000000
 Gauge origin    (bohr):      0.000000000000      0.000000000000      0.000000000000
 Dipole origin   (bohr):      0.000000000000      0.000000000000      0.000000000000
 >>>> Total CPU  time used in HERMIT:   0.01 seconds
 >>>> Total wall time used in HERMIT:   0.01 seconds


                        .----------------------------------.
                        | End of Integral Section (HERMIT) |
                        `----------------------------------'



                   .--------------------------------------------.
                   | Starting in Wave Function Section (SIRIUS) |
                   `--------------------------------------------'


 **********************************************************************
 *SIRIUS* a direct, restricted step, second order MCSCF program       *
 **********************************************************************

 (Wave function specification suppressed here, see output above for initial geometry.)


 ***********************************************
 ***** DIIS acceleration of SCF iterations *****
 ***********************************************

 C1-DIIS algorithm; max error vectors =    8


                      DFT-D Empirical Dispersion Correction
                      -------------------------------------

       Running DFT-D Version :     3
                   Reference : S. Grimme, J. Antony, S. Ehrlich and H. Krieg, 
                               J. Chem. Phys. 132 (2010), 154104
       Becke-Johnson Damping :    F
                3-body terms :    F


                      DFT-D3 Functional Dependent Parameters
                      --------------------------------------

      s_6 =       1.000000000000     sr_6 =       1.094000000000
      s_8 =       1.682000000000     sr_8 =       1.000000000000
      alp =      14.000000000000


                          +------------------------------+
                          ! Dispersion Energy Correction !
                          +------------------------------+

                      E_disp :         -0.002146547521

 Iter      Total energy        Error norm    Delta(E)  DIIS dim.
 -----------------------------------------------------------------------------
   1  Screening settings (-IFTHRS, JTDIIS, DIFDEN, times)  -11    1    F  4.68D-02  4.70D-02
      K-S energy, electrons, error :    -13.730036315804  20.0000129399    1.29D-05
@  1    -79.9901926055        9.82354D-02    2.04D-03    1
      Virial theorem: -V/T =      2.016446
@      MULPOP C   _1 -0.30; C   _2 -0.30; H   _1  0.08; H   _2  0.08; H   _3  0.08; H   _4  0.08; H   _1  0.08; H   _2  0.08; H   _1  0.08; H   _2  0.08; 
@
 -----------------------------------------------------------------------------
   2  Screening settings (-IFTHRS, JTDIIS, DIFDEN, times)   -8    2    F  4.66D-02  4.70D-02
      K-S energy, electrons, error :    -13.728081150848  20.0000129817    1.30D-05
@  2    -79.9918656466        1.24890D-02   -1.67D-03    2
      Virial theorem: -V/T =      2.016603
@      MULPOP C   _1 -0.29; C   _2 -0.29; H   _1  0.07; H   _2  0.07; H   _3  0.07; H   _4  0.07; H   _1  0.07; H   _2  0.07; H   _1  0.07; H   _2  0.07; 
@
 -----------------------------------------------------------------------------
   3  Screening settings (-IFTHRS, JTDIIS, DIFDEN, times)   -8    3    F  4.30D-02  4.30D-02
      K-S energy, electrons, error :    -13.731160869419  20.0000129655    1.30D-05
@  3    -79.9918641766        1.32573D-02    1.47D-06    3
      Virial theorem: -V/T =      2.016314
@      MULPOP C   _1 -0.30; C   _2 -0.30; H   _1  0.08; H   _2  0.08; H   _3  0.08; H   _4  0.08; H   _1  0.08; H   _2  0.08; H   _1  0.08; H   _2  0.08; 
@
 -----------------------------------------------------------------------------
   4  Screening settings (-IFTHRS, JTDIIS, DIFDEN, times)   -8    4    F  4.25D-02  4.20D-02
      K-S energy, electrons, error :    -13.729568962658  20.0000129739    1.30D-05
@  4    -79.9918777219        4.02541D-05   -1.35D-05    4
      Virial theorem: -V/T =      2.016464
@      MULPOP C   _1 -0.30; C   _2 -0.30; H   _1  0.07; H   _2  0.07; H   _3  0.07; H   _4  0.07; H   _1  0.07; H   _2  0.07; H   _1  0.07; H   _2  0.07; 
@
 -----------------------------------------------------------------------------
   5  Screening settings (-IFTHRS, JTDIIS, DIFDEN, times)  -11    5    F  4.43D-02  4.40D-02
      K-S energy, electrons, error :    -13.729568395262  20.0000129739    1.30D-05
@  5    -79.9918777252        8.28098D-06   -3.29D-09    5
      Virial theorem: -V/T =      2.016464
@      MULPOP C   _1 -0.30; C   _2 -0.30; H   _1  0.07; H   _2  0.07; H   _3  0.07; H   _4  0.07; H   _1  0.07; H   _2  0.07; H   _1  0.07; H   _2  0.07; 
@
 -----------------------------------------------------------------------------
   6  Screening settings (-IFTHRS, JTDIIS, DIFDEN, times)  -11    6    F  5.49D-02  5.50D-02
      K-S energy, electrons, error :    -13.729568308087  20.0000129739    1.30D-05
@  6    -79.9918777252        6.30438D-07   -8.47D-12    6

@ *** DIIS converged in   6 iterations !
@     Converged SCF energy, gradient:    -79.991877725239    6.30D-07
    - total time used in SIRFCK :              0.00 seconds


 *** SCF orbital energy analysis ***

 Number of electrons :   20
 Orbital occupations :    4    1    4    1

 Sym       Kohn-Sham orbital energies

1 Ag     -9.73500534    -0.58081458    -0.30610376    -0.29972467     0.39664072
          0.40100117     0.41341452

2 Au     -0.30380561     0.39355976

3 Bu     -9.73500698    -0.57669590    -0.30343905    -0.29772978     0.39468146
          0.39883575     0.43490943

4 Bg     -0.29947945     0.40300427

    E(LUMO) :     0.39355976 au (symmetry 2)
  - E(HOMO) :    -0.29772978 au (symmetry 3)
  ------------------------------------------
    gap     :     0.69128955 au

 >>> Writing SIRIFC interface file

 >>>> CPU and wall time for SCF :       4.065       4.062


                       .-----------------------------------.
                       | >>> Final results from SIRIUS <<< |
                       `-----------------------------------'


@    Spin multiplicity:           1
@    Spatial symmetry:            1 ( irrep  Ag  in C2h )
@    Total charge of molecule:    0

@    Final DFT energy:            -79.991877725239                 
@    Nuclear repulsion:            40.287324825593
@    Electronic energy:          -120.279202550832

@    Final gradient norm:           0.000000630438

 
     Date and time (Linux)  : Tue Feb 24 17:22:17 2015
     Host name              : foeroyar                                



 >>>> Total CPU  time used in SIRIUS :      4.07 seconds
 >>>> Total wall time used in SIRIUS :      4.06 seconds

 
     Date and time (Linux)  : Tue Feb 24 17:22:17 2015
     Host name              : foeroyar                                


                     .---------------------------------------.
                     | End of Wave Function Section (SIRIUS) |
                     `---------------------------------------'


 Step rejected because ratio between
        actual energy change :    0.00035376
 and predicted energy change :   -0.00015430
                          is :         -2.29
 Minimum for quadratic model :     0.233809
 Norm of new step            :     0.140278


 **************************************************************************************
 ****************** Output of molecule and basis set info suppressed ******************
 **************************************************************************************



                     .---------------------------------------.
                     | Starting in Integral Section (HERMIT) |
                     `---------------------------------------'



 ***************************************************************************************
 ****************** Output from **INTEGRALS input processing (HERMIT) ******************
 ***************************************************************************************


 - Using defaults, no **INTEGRALS input found

 Default print level:       -1

 * Nuclear model: Point charge

 Calculation of one-electron Hamiltonian integrals.

 Center of mass  (bohr):      0.000000000000      0.000000000000      0.000000000000
 Operator center (bohr):      0.000000000000      0.000000000000      0.000000000000
 Gauge origin    (bohr):      0.000000000000      0.000000000000      0.000000000000
 Dipole origin   (bohr):      0.000000000000      0.000000000000      0.000000000000
 >>>> Total CPU  time used in HERMIT:   0.02 seconds
 >>>> Total wall time used in HERMIT:   0.02 seconds


                        .----------------------------------.
                        | End of Integral Section (HERMIT) |
                        `----------------------------------'



                   .--------------------------------------------.
                   | Starting in Wave Function Section (SIRIUS) |
                   `--------------------------------------------'


 **********************************************************************
 *SIRIUS* a direct, restricted step, second order MCSCF program       *
 **********************************************************************

 (Wave function specification suppressed here, see output above for initial geometry.)


 ***********************************************
 ***** DIIS acceleration of SCF iterations *****
 ***********************************************

 C1-DIIS algorithm; max error vectors =    8


                      DFT-D Empirical Dispersion Correction
                      -------------------------------------

       Running DFT-D Version :     3
                   Reference : S. Grimme, J. Antony, S. Ehrlich and H. Krieg, 
                               J. Chem. Phys. 132 (2010), 154104
       Becke-Johnson Damping :    F
                3-body terms :    F


                      DFT-D3 Functional Dependent Parameters
                      --------------------------------------

      s_6 =       1.000000000000     sr_6 =       1.094000000000
      s_8 =       1.682000000000     sr_8 =       1.000000000000
      alp =      14.000000000000


                          +------------------------------+
                          ! Dispersion Energy Correction !
                          +------------------------------+

                      E_disp :         -0.002822247868

 Iter      Total energy        Error norm    Delta(E)  DIIS dim.
 -----------------------------------------------------------------------------
   1  Screening settings (-IFTHRS, JTDIIS, DIFDEN, times)  -11    1    F  8.47D-02  8.50D-02
      K-S energy, electrons, error :    -13.740574680724  20.0000075144    7.51D-06
@  1    -79.9912592275        7.54438D-02    6.18D-04    1
      Virial theorem: -V/T =      2.015972
@      MULPOP C   _1 -0.30; C   _2 -0.30; H   _1  0.07; H   _2  0.07; H   _3  0.07; H   _4  0.07; H   _1  0.07; H   _2  0.07; H   _1  0.07; H   _2  0.07; 
@
 -----------------------------------------------------------------------------
[...]
    - total time used in SIRFCK :              0.00 seconds


 *** SCF orbital energy analysis ***

 Number of electrons :   20
 Orbital occupations :    4    1    4    1

 Sym       Kohn-Sham orbital energies

1 Ag     -9.73426928    -0.58397396    -0.31002195    -0.29902960     0.39979501
          0.40809210     0.41525042

2 Au     -0.30615321     0.39671908

3 Bu     -9.73427513    -0.57686238    -0.30634505    -0.29593723     0.39570533
          0.40528995     0.44705614

4 Bg     -0.29927673     0.40704542

    E(LUMO) :     0.39570533 au (symmetry 3)
  - E(HOMO) :    -0.29593723 au (symmetry 3)
  ------------------------------------------
    gap     :     0.69164256 au

 >>> Writing SIRIFC interface file

 >>>> CPU and wall time for SCF :       4.187       4.184


                       .-----------------------------------.
                       | >>> Final results from SIRIUS <<< |
                       `-----------------------------------'


@    Spin multiplicity:           1
@    Spatial symmetry:            1 ( irrep  Ag  in C2h )
@    Total charge of molecule:    0

@    Final DFT energy:            -79.992263831180                 
@    Nuclear repulsion:            41.490439768994
@    Electronic energy:          -121.482703600174

@    Final gradient norm:           0.000000211467

 
     Date and time (Linux)  : Tue Feb 24 17:23:13 2015
     Host name              : foeroyar                                



 >>>> Total CPU  time used in SIRIUS :      4.19 seconds
 >>>> Total wall time used in SIRIUS :      4.19 seconds

 
     Date and time (Linux)  : Tue Feb 24 17:23:13 2015
     Host name              : foeroyar                                


                     .---------------------------------------.
                     | End of Wave Function Section (SIRIUS) |
                     `---------------------------------------'

 Trust radius increased due to good ratio.
 Updated trust radius   0.00947

     Order of analytical energy-derivatives available:   1
     This will be the default.

 Center of mass dipole origin  :    0.000000    0.000000    0.000000

 Center of mass gauge origin   :    0.000000    0.000000    0.000000


                 .------------------------------------------------.
                 | Starting in Static Property Section (ABACUS) - |
                 `------------------------------------------------'


 
     Date and time (Linux)  : Tue Feb 24 17:23:13 2015
     Host name              : foeroyar                                


                      DFT-D Empirical Dispersion Correction
                      -------------------------------------

       Running DFT-D Version :     3
                   Reference : S. Grimme, J. Antony, S. Ehrlich and H. Krieg, 
                               J. Chem. Phys. 132 (2010), 154104
       Becke-Johnson Damping :    F
                3-body terms :    F


                      DFT-D3 Functional Dependent Parameters
                      --------------------------------------

      s_6 =       1.000000000000     sr_6 =       1.094000000000
      s_8 =       1.682000000000     sr_8 =       1.000000000000
      alp =      14.000000000000


                          +------------------------------+
                          ! Dispersion Energy Correction !
                          +------------------------------+

                      E_disp :         -0.003017007268


  Symmetry Coordinates
  --------------------

  Number of coordinates in each symmetry:     9    6    9    6

  Symmetry  Ag  ( 1)

    1   C     x    [  1  -    4 ]/2
    2   C     y    [  2  -    5 ]/2
    3   H     x    [  7  +   10  -   13  -   16 ]/4
    4   H     y    [  8  +   11  -   14  -   17 ]/4
    5   H     z    [  9  -   12  +   15  -   18 ]/4
    6   H     x    [ 19  -   22 ]/2
    7   H     y    [ 20  -   23 ]/2
    8   H     x    [ 25  -   28 ]/2
    9   H     y    [ 26  -   29 ]/2

  Symmetry  Au  ( 2)

   10   C     z    [  3  +    6 ]/2
   11   H     x    [  7  -   10  -   13  +   16 ]/4
   12   H     y    [  8  -   11  -   14  +   17 ]/4
   13   H     z    [  9  +   12  +   15  +   18 ]/4
   14   H     z    [ 21  +   24 ]/2
   15   H     z    [ 27  +   30 ]/2

  Symmetry  Bu  ( 3)

   16   C     x    [  1  +    4 ]/2
   17   C     y    [  2  +    5 ]/2
   18   H     x    [  7  +   10  +   13  +   16 ]/4
   19   H     y    [  8  +   11  +   14  +   17 ]/4
   20   H     z    [  9  -   12  -   15  +   18 ]/4
   21   H     x    [ 19  +   22 ]/2
   22   H     y    [ 20  +   23 ]/2
   23   H     x    [ 25  +   28 ]/2
   24   H     y    [ 26  +   29 ]/2

  Symmetry  Bg  ( 4)

   25   C     z    [  3  -    6 ]/2
   26   H     x    [  7  -   10  +   13  -   16 ]/4
   27   H     y    [  8  -   11  +   14  -   17 ]/4
   28   H     z    [  9  +   12  -   15  -   18 ]/4
   29   H     z    [ 21  -   24 ]/2
   30   H     z    [ 27  -   30 ]/2


   ***************************************************************************
   ************************ FINAL RESULTS from ABACUS ************************
   ***************************************************************************


 
     Date and time (Linux)  : Tue Feb 24 17:23:15 2015
     Host name              : foeroyar                                


 CPU time statistics for ABACUS
 ------------------------------

 ONEINT     00:00:02      93 %
 REST       00:00:01      50 %

 TOTAL      00:00:02     100 %


 >>>> Total CPU  time used in ABACUS:   2.22 seconds
 >>>> Total wall time used in ABACUS:   2.22 seconds


                   .-------------------------------------------.
                   | End of Static Property Section (ABACUS) - |
                   `-------------------------------------------'



           :::::::::::::::::::::::::::::::::::::::::::::::::::::::::::
           ::::::::::::::: Optimization Control Center :::::::::::::::
           :::::::::::::::::::::::::::::::::::::::::::::::::::::::::::



                               Final geometry (au)
                               -------------------

 C   _1     3.3031347213           -0.0107478010            0.0000000000
 C   _2    -3.3031347213            0.0107478010            0.0000000000
 H   _1     2.6201088724           -1.0054343322            1.7028906132
 H   _2     2.6201088724           -1.0054343322           -1.7028906132
 H   _3    -2.6201088724            1.0054343322            1.7028906132
 H   _4    -2.6201088724            1.0054343322           -1.7028906132
 H   _1     2.5702718090            1.9433539762            0.0000000000
 H   _2    -2.5702718090           -1.9433539762            0.0000000000
 H   _1     5.3904400738            0.0244056150            0.0000000000
 H   _2    -5.3904400738           -0.0244056150            0.0000000000





                             Optimization information
                             ------------------------

 Iteration number               :       7
 End of optimization            :       T 
 Energy at this geometry is     :     -79.992264
 Energy change from last geom.  :      -0.000000
 Predicted change               :      -0.000000
 Ratio, actual/predicted change :       1.429184
 Norm of gradient               :       0.000023
 Norm of step                   :       0.001337
 Updated trust radius           :       0.009469
 Total effective Hessian index  :       0




          <<<<<<<<<<<<<<<<<<<<<<<<<<<<<<<<<<<<<<<<<<<<<<<<<<<<<<<<<<<<<<
          <<<<<<<<<<<<<<<<<<<<  End of Optimization <<<<<<<<<<<<<<<<<<<<
          <<<<<<<<<<<<<<<<<<<<<<<<<<<<<<<<<<<<<<<<<<<<<<<<<<<<<<<<<<<<<<



                              Final geometry (bohr)
                              ---------------------

 C   _1     3.3031347213           -0.0107478010            0.0000000000
 C   _2    -3.3031347213            0.0107478010            0.0000000000
 H   _1     2.6201088724           -1.0054343322            1.7028906132
 H   _2     2.6201088724           -1.0054343322           -1.7028906132
 H   _3    -2.6201088724            1.0054343322            1.7028906132
 H   _4    -2.6201088724            1.0054343322           -1.7028906132
 H   _1     2.5702718090            1.9433539762            0.0000000000
 H   _2    -2.5702718090           -1.9433539762            0.0000000000
 H   _1     5.3904400738            0.0244056150            0.0000000000
 H   _2    -5.3904400738           -0.0244056150            0.0000000000





                      Final geometry (xyz format; angstrom)
                      -------------------------------------

10

C        1.7479436187           -0.0056874914            0.0000000000
C       -1.7479436187            0.0056874914            0.0000000000
H        1.3865019051           -0.5320529356            0.9011309050
H        1.3865019051           -0.5320529356           -0.9011309050
H       -1.3865019051            0.5320529356            0.9011309050
H       -1.3865019051            0.5320529356           -0.9011309050
H        1.3601292669            1.0283786367            0.0000000000
H       -1.3601292669           -1.0283786367            0.0000000000
H        2.8524980433            0.0129148953            0.0000000000
H       -2.8524980433           -0.0129148953            0.0000000000



@ Iter     Energy        Change       GradNorm  Index   StepLen    TrustRad #Rej
@ ------------------------------------------------------------------------------
@   0      -79.990697     0.000000     0.033627    0    0.500008    0.500000   0 
@   1      -79.992231    -0.001534     0.004854    0    0.140278*   0.600009   1 
@   2      -79.992243    -0.000011     0.002031    0    0.061035*   0.140278   1 
@   3      -79.992248    -0.000005     0.003123    0    0.061036    0.061035   0 
@   4      -79.992263    -0.000015     0.000893    0    0.007891*   0.061036   2 
@   5      -79.992263    -0.000000     0.000678    0    0.007891    0.007891   0 
@   6      -79.992263    -0.000001     0.000332    0    0.007891    0.007891   0 
@   7      -79.992264    -0.000000     0.000023    0    0.001337*   0.009469   0 

@  *) Newton step taken.


   Interatomic separations (in Angstrom):
   --------------------------------------

            C   _1      C   _2      H   _1      H   _2      H   _3      H   _4
            ------      ------      ------      ------      ------      ------
 C   _1:    0.000000
 C   _2:    3.495906    0.000000
 H   _1:    1.104417    3.305443    0.000000
 H   _2:    1.104417    3.305443    1.802262    0.000000
 H   _3:    3.305443    1.104417    2.970164    3.474193    0.000000
 H   _4:    3.305443    1.104417    3.474193    2.970164    1.802262    0.000000
 H   _1:    1.104397    3.272005    1.802132    1.802132    2.932978    2.932978
 H   _2:    3.272005    1.104397    2.932978    2.932978    1.802132    1.802132
 H   _1:    1.104711    4.600447    1.805041    1.805041    4.364706    4.364706
 H   _2:    4.600447    1.104711    4.364706    4.364706    1.805041    1.805041

            H   _1      H   _2      H   _1      H   _2
            ------      ------      ------      ------
 H   _1:    0.000000
 H   _2:    3.410287    0.000000
 H   _1:    1.805085    4.339415    0.000000
 H   _2:    4.339415    1.805085    5.705055    0.000000


  Max    interatomic separation is    5.7051 Angstrom (   10.7810 Bohr)
  between atoms   10 and    9, "H   _2" and "H   _1".

  Min HX interatomic separation is    1.1044 Angstrom (    2.0870 Bohr)

  Min YX interatomic separation is    3.4959 Angstrom (    6.6063 Bohr)


  Bond distances (Angstrom):
  --------------------------

                  atom 1     atom 2       distance
                  ------     ------       --------
  bond distance:  H   _1     C   _1       1.104417
  bond distance:  H   _2     C   _1       1.104417
  bond distance:  H   _3     C   _2       1.104417
  bond distance:  H   _4     C   _2       1.104417
  bond distance:  H   _1     C   _1       1.104397
  bond distance:  H   _2     C   _2       1.104397
  bond distance:  H   _1     C   _1       1.104711
  bond distance:  H   _2     C   _2       1.104711


  Bond angles (degrees):
  ----------------------

                  atom 1     atom 2     atom 3         angle
                  ------     ------     ------         -----
  bond angle:     H   _1     C   _1     H   _2       109.360
  bond angle:     H   _1     C   _1     H   _1       109.349
  bond angle:     H   _1     C   _1     H   _1       109.588
  bond angle:     H   _2     C   _1     H   _1       109.349
  bond angle:     H   _2     C   _1     H   _1       109.588
  bond angle:     H   _1     C   _1     H   _1       109.593
  bond angle:     H   _3     C   _2     H   _4       109.360
  bond angle:     H   _3     C   _2     H   _2       109.349
  bond angle:     H   _3     C   _2     H   _2       109.588
  bond angle:     H   _4     C   _2     H   _2       109.349
  bond angle:     H   _4     C   _2     H   _2       109.588
  bond angle:     H   _2     C   _2     H   _2       109.593



@ Geometry converged in  8 iterations!

@ Energy at final geometry is       :     -79.992264 a.u.
@ Energy change during optimization :      -0.001566 a.u.
@                                             -4.112 kJ/mol


 Center of mass dipole origin  :    0.000000    0.000000    0.000000

 Center of mass gauge origin   :    0.000000    0.000000    0.000000

     Order of analytical energy-derivatives available:   1
     This will be the default.


                 .------------------------------------------------.
                 | Starting in Static Property Section (ABACUS) - |
                 `------------------------------------------------'


 
     Date and time (Linux)  : Tue Feb 24 17:23:16 2015
     Host name              : foeroyar                                


   ***************************************************************************
   ************************ FINAL RESULTS from ABACUS ************************
   ***************************************************************************


 
     Date and time (Linux)  : Tue Feb 24 17:23:16 2015
     Host name              : foeroyar                                


                             Molecular geometry (au)
                             -----------------------

 C   _1     3.3031347213           -0.0107478010            0.0000000000
 C   _2    -3.3031347213            0.0107478010            0.0000000000
 H   _1     2.6201088724           -1.0054343322            1.7028906132
 H   _2     2.6201088724           -1.0054343322           -1.7028906132
 H   _3    -2.6201088724            1.0054343322            1.7028906132
 H   _4    -2.6201088724            1.0054343322           -1.7028906132
 H   _1     2.5702718090            1.9433539762            0.0000000000
 H   _2    -2.5702718090           -1.9433539762            0.0000000000
 H   _1     5.3904400738            0.0244056150            0.0000000000
 H   _2    -5.3904400738           -0.0244056150            0.0000000000





                        Molecular wave function and energy
                        ----------------------------------

     Spatial symmetry   1 ( Ag  )
     Spin multiplicity  1
     2 * M_S            0
     State number       1
     Total charge       0

     Total energy        -79.9922638312 au (Hartrees)
                         -2176.70022493 eV
                           -210019.6563 kJ/mol
                            -50195.9026 kcal/mol


                   Scalar Breit-Pauli relativistic corrections
                   -------------------------------------------

     Darwin correction:                          0.0775861224 au
     Mass-velocity correction:                  -0.0978074988 au

     Total relativistic correction:             -0.0202213764 au (0.0253%)
     Non-relativistic + relativistic energy:   -80.0124852076 au



      (Note that these corrections are NOT included in the results below.)


                                  Dipole moment
                                  -------------

                 au               Debye          C m (/(10**-30)
              0.000000           0.000000           0.000000


                             Dipole moment components
                             ------------------------

                    All dipole components are zero by symmetry


   Units:   1 a.u. =   2.54175 Debye 
            1 a.u. =   8.47835 (10**-30) C m (SI)




   Interatomic separations (in Angstrom):
   --------------------------------------

            C   _1      C   _2      H   _1      H   _2      H   _3      H   _4
            ------      ------      ------      ------      ------      ------
 C   _1:    0.000000
 C   _2:    3.495906    0.000000
 H   _1:    1.104417    3.305443    0.000000
 H   _2:    1.104417    3.305443    1.802262    0.000000
 H   _3:    3.305443    1.104417    2.970164    3.474193    0.000000
 H   _4:    3.305443    1.104417    3.474193    2.970164    1.802262    0.000000
 H   _1:    1.104397    3.272005    1.802132    1.802132    2.932978    2.932978
 H   _2:    3.272005    1.104397    2.932978    2.932978    1.802132    1.802132
 H   _1:    1.104711    4.600447    1.805041    1.805041    4.364706    4.364706
 H   _2:    4.600447    1.104711    4.364706    4.364706    1.805041    1.805041

            H   _1      H   _2      H   _1      H   _2
            ------      ------      ------      ------
 H   _1:    0.000000
 H   _2:    3.410287    0.000000
 H   _1:    1.805085    4.339415    0.000000
 H   _2:    4.339415    1.805085    5.705055    0.000000


  Max    interatomic separation is    5.7051 Angstrom (   10.7810 Bohr)
  between atoms   10 and    9, "H   _2" and "H   _1".

  Min HX interatomic separation is    1.1044 Angstrom (    2.0870 Bohr)

  Min YX interatomic separation is    3.4959 Angstrom (    6.6063 Bohr)


  Bond distances (Angstrom):
  --------------------------

                  atom 1     atom 2       distance
                  ------     ------       --------
  bond distance:  H   _1     C   _1       1.104417
  bond distance:  H   _2     C   _1       1.104417
  bond distance:  H   _3     C   _2       1.104417
  bond distance:  H   _4     C   _2       1.104417
  bond distance:  H   _1     C   _1       1.104397
  bond distance:  H   _2     C   _2       1.104397
  bond distance:  H   _1     C   _1       1.104711
  bond distance:  H   _2     C   _2       1.104711


  Bond angles (degrees):
  ----------------------

                  atom 1     atom 2     atom 3         angle
                  ------     ------     ------         -----
  bond angle:     H   _1     C   _1     H   _2       109.360
  bond angle:     H   _1     C   _1     H   _1       109.349
  bond angle:     H   _1     C   _1     H   _1       109.588
  bond angle:     H   _2     C   _1     H   _1       109.349
  bond angle:     H   _2     C   _1     H   _1       109.588
  bond angle:     H   _1     C   _1     H   _1       109.593
  bond angle:     H   _3     C   _2     H   _4       109.360
  bond angle:     H   _3     C   _2     H   _2       109.349
  bond angle:     H   _3     C   _2     H   _2       109.588
  bond angle:     H   _4     C   _2     H   _2       109.349
  bond angle:     H   _4     C   _2     H   _2       109.588
  bond angle:     H   _2     C   _2     H   _2       109.593




 CPU time statistics for ABACUS
 ------------------------------




 >>>> Total CPU  time used in ABACUS:   0.01 seconds
 >>>> Total wall time used in ABACUS:   0.01 seconds


                   .-------------------------------------------.
                   | End of Static Property Section (ABACUS) - |
                   `-------------------------------------------'

 >>>> Total CPU  time used in DALTON:  1 minute  17 seconds
 >>>> Total wall time used in DALTON:  1 minute  17 seconds

 
     Date and time (Linux)  : Tue Feb 24 17:23:16 2015
     Host name              : foeroyar                                
