[Molden Format]
[GTO]
    1 0
 s   6 1.00
     322.0370000    0.0592394000
      48.4308000    0.3515000000
      10.4206000    0.7076580000
       7.4029400    0.0000000000
       1.5762000    0.0000000000
       0.3736840    0.0000000000
 s   6 1.00
     322.0370000    0.0000000000
      48.4308000    0.0000000000
      10.4206000    0.0000000000
       7.4029400   -0.4044530000
       1.5762000    1.2215600000
       0.3736840    0.0000000000
 s   6 1.00
     322.0370000    0.0000000000
      48.4308000    0.0000000000
      10.4206000    0.0000000000
       7.4029400    0.0000000000
       1.5762000    0.0000000000
       0.3736840    1.0000000000
 p   3 1.00
       7.4029400    0.2445860000
       1.5762000    0.8539550000
       0.3736840    0.0000000000
 p   3 1.00
       7.4029400    0.0000000000
       1.5762000    0.0000000000
       0.3736840    1.0000000000

    2 0
 s   6 1.00
     172.2560000    0.0617669000
      25.9109000    0.3587940000
       5.5333500    0.7007130000
       3.6649800    0.0000000000
       0.7705450    0.0000000000
       0.1958570    0.0000000000
 s   6 1.00
     172.2560000    0.0000000000
      25.9109000    0.0000000000
       5.5333500    0.0000000000
       3.6649800   -0.3958970000
       0.7705450    1.2158400000
       0.1958570    0.0000000000
 s   6 1.00
     172.2560000    0.0000000000
      25.9109000    0.0000000000
       5.5333500    0.0000000000
       3.6649800    0.0000000000
       0.7705450    0.0000000000
       0.1958570    1.0000000000
 p   3 1.00
       3.6649800    0.2364600000
       0.7705450    0.8606190000
       0.1958570    0.0000000000
 p   3 1.00
       3.6649800    0.0000000000
       0.7705450    0.0000000000
       0.1958570    1.0000000000

    3 0
 s   3 1.00
       5.4471780    0.1562850000
       0.8245470    0.9046910000
       0.1831920    0.0000000000
 s   3 1.00
       5.4471780    0.0000000000
       0.8245470    0.0000000000
       0.1831920    1.0000000000

    4 0
 s   3 1.00
       5.4471780    0.1562850000
       0.8245470    0.9046910000
       0.1831920    0.0000000000
 s   3 1.00
       5.4471780    0.0000000000
       0.8245470    0.0000000000
       0.1831920    1.0000000000

[SCFCONV]
scf-first  1  THROUGH  10
     -112.8361081680
     -113.1595249751
     -113.2180164272
     -113.2199092559
     -113.2200349628
     -113.2200405784
     -113.2200408798
     -113.2200408869
     -113.2200408876
     -113.2200408877
[TITLE]
*** Dalton interface to Molden, wave function type : HF            31Aug15   15:
[Atoms] AU
O1         1     8         0.0000000000         0.0000000000        -2.280000000
C2         2     6         0.0000000000         0.0000000000         0.000000000
H3         3     1         1.7868000000         0.0000000000         1.140000000
H3         4     1        -1.7868000000         0.0000000000         1.140000000
[5D7F]
[9G]
[MO]
Sym= A
Ene=  -20.4864
Spin= Alpha
Occup= 2.0000
    1       -0.983531
    2       -0.097982
    3        0.047683
    6       -0.004502
    9        0.013175
   10       -0.000194
   11       -0.000583
   12       -0.017838
   15        0.002508
   18        0.013930
   19        0.000705
   20       -0.000550
   21        0.000705
   22       -0.000550
Sym= A
Ene=  -11.2904
Spin= Alpha
Occup= 2.0000
    1       -0.000039
    2       -0.000617
    3        0.000527
    6        0.000631
    9        0.004571
   10       -0.986420
   11       -0.093109
   12        0.043800
   15        0.001517
   18        0.007618
   19        0.001564
   20       -0.012575
   21        0.001564
   22       -0.012575
Sym= A
Ene=   -1.4202
Spin= Alpha
Occup= 2.0000
    1        0.214512
    2       -0.206747
    3       -0.661778
    6       -0.129974
    9       -0.132645
   10        0.118962
   11       -0.132616
   12       -0.127090
   15        0.156806
   18       -0.043181
   19       -0.023883
   20        0.016335
   21       -0.023883
   22        0.016335
Sym= A
Ene=   -0.8576
Spin= Alpha
Occup= 2.0000
    1        0.096275
    2       -0.093581
    3       -0.368774
    6        0.111045
    9        0.089618
   10       -0.172276
   11        0.200575
   12        0.501007
   15        0.151632
   18        0.132265
   19        0.165699
   20        0.061147
   21        0.165699
   22        0.061147
Sym= A
Ene=   -0.6910
Spin= Alpha
Occup= 2.0000
    4       -0.291231
    7       -0.264043
   13       -0.347512
   16       -0.284696
   19       -0.160076
   20       -0.099359
   21        0.160076
   22        0.099359
Sym= A
Ene=   -0.6369
Spin= Alpha
Occup= 2.0000
    1        0.085151
    2       -0.077496
    3       -0.356466
    6        0.415230
    9        0.416623
   10       -0.022994
   11        0.057025
   12       -0.061892
   15       -0.337679
   18       -0.088515
   19       -0.083451
   20       -0.090994
   21       -0.083451
   22       -0.090994
Sym= A
Ene=   -0.5289
Spin= Alpha
Occup= 2.0000
    5       -0.386171
    8       -0.435374
   14       -0.293485
   17       -0.312119
Sym= A
Ene=   -0.4298
Spin= Alpha
Occup= 2.0000
    4       -0.439975
    7       -0.527314
   13        0.187599
   16        0.041554
   19        0.186295
   20        0.283030
   21       -0.186295
   22       -0.283030
Sym= A
Ene=    0.1464
Spin= Alpha
Occup= 0.0000
    5        0.334183
    8        0.575094
   14       -0.356959
   17       -0.696803
Sym= A
Ene=    0.2646
Spin= Alpha
Occup= 0.0000
    1       -0.005019
    2        0.013880
    3       -0.027925
    6        0.060776
    9        0.094095
   10        0.144029
   11       -0.066302
   12       -1.787725
   15       -0.186574
   18       -0.696975
   19        0.057524
   20        1.296999
   21        0.057524
   22        1.296999
Sym= A
Ene=    0.3618
Spin= Alpha
Occup= 0.0000
    4        0.145897
    7        0.374105
   13       -0.407030
   16       -1.408163
   19       -0.007419
   20        1.470732
   21        0.007419
   22       -1.470732
Sym= A
Ene=    0.4530
Spin= Alpha
Occup= 0.0000
    1       -0.121937
    2        0.024474
    3        1.595417
    6        0.177269
    9        0.735202
   10        0.071020
   11        0.034664
   12       -1.120150
   15        0.057604
   18        1.698828
   19       -0.000037
   20       -0.174118
   21       -0.000037
   22       -0.174118
Sym= A
Ene=    0.9285
Spin= Alpha
Occup= 0.0000
    5        0.006420
    8        0.117220
   14        1.084950
   17       -1.012734
Sym= A
Ene=    1.0210
Spin= Alpha
Occup= 0.0000
    4       -0.231862
    7       -0.257999
   13       -0.799010
   16        1.866058
   19       -0.461593
   20       -0.485181
   21        0.461593
   22        0.485181
Sym= A
Ene=    1.0457
Spin= Alpha
Occup= 0.0000
    1        0.050097
    2       -0.091591
    3       -0.016687
    6       -0.241263
    9       -0.347344
   10       -0.076718
   11       -0.064894
   12        0.728549
   15       -0.798333
   18        0.806483
   19       -0.622300
   20        0.081674
   21       -0.622300
   22        0.081674
Sym= A
Ene=    1.1521
Spin= Alpha
Occup= 0.0000
    1       -0.035216
    2        0.015168
    3        0.079107
    6        0.187654
    9        0.360920
   10       -0.003651
   11       -0.359747
   12       -0.197923
   15        0.876816
   18       -0.412858
   19       -0.658426
   20        0.585499
   21       -0.658426
   22        0.585499
Sym= A
Ene=    1.2486
Spin= Alpha
Occup= 0.0000
    4       -0.122068
    7        0.135144
   13        0.761962
   16       -0.949543
   19       -0.789794
   20        1.162088
   21        0.789794
   22       -1.162088
Sym= A
Ene=    1.5582
Spin= Alpha
Occup= 0.0000
    1       -0.005582
    2        0.019824
    3        0.271976
    6       -0.264327
    9        0.244229
   10       -0.059771
   11        1.654530
   12       -2.656104
   15        0.233367
   18       -0.485463
   19       -0.144409
   20        0.915231
   21       -0.144409
   22        0.915231
Sym= A
Ene=    1.8652
Spin= Alpha
Occup= 0.0000
    5        1.048320
    8       -1.074019
   14       -0.004412
   17        0.298131
Sym= A
Ene=    1.9007
Spin= Alpha
Occup= 0.0000
    1       -0.056411
    2        0.212756
    3        0.148101
    6       -0.976617
    9        1.281401
   10       -0.027482
   11       -0.529431
   12       -0.000024
   15        0.155316
   18        0.202647
   19        0.069385
   20       -0.130234
   21        0.069385
   22       -0.130234
Sym= A
Ene=    1.9771
Spin= Alpha
Occup= 0.0000
    4        1.009429
    7       -1.278684
   13       -0.102539
   16        1.018562
   19       -0.235983
   20       -0.327872
   21        0.235983
   22        0.327872
Sym= A
Ene=    3.3195
Spin= Alpha
Occup= 0.0000
    1        0.063039
    2       -1.709200
    3        2.530377
    6       -0.254739
    9        0.947582
   10        0.001965
   11       -0.103391
   12       -1.126477
   15        0.276146
   18        0.781869
   19        0.067282
   20       -0.021731
   21        0.067282
   22       -0.021731
[End of Molden output from Dalton]
