

     ************************************************************************
     *************** Dalton - An Electronic Structure Program ***************
     ************************************************************************

    This is output from DALTON 2016.alpha
   ----------------------------------------------------------------------------
    NOTE:
     
    Dalton is an experimental code for the evaluation of molecular
    properties using (MC)SCF, DFT, CI, and CC wave functions.
    The authors accept no responsibility for the performance of
    the code or for the correctness of the results.
     
    The code (in whole or part) is provided under a licence and
    is not to be reproduced for further distribution without
    the written permission of the authors or their representatives.
     
    See the home page "http://daltonprogram.org" for further information.
     
    If results obtained with this code are published,
    the appropriate citations would be both of:
     
       K. Aidas, C. Angeli, K. L. Bak, V. Bakken, R. Bast,
       L. Boman, O. Christiansen, R. Cimiraglia, S. Coriani,
       J. Cukras, P. Dahle, E. K. Dalskov, U. Ekstroem,
       T. Enevoldsen, J. J. Eriksen, P. Ettenhuber, B. Fernandez,
       L. Ferrighi, H. Fliegl, L. Frediani, K. Hald, A. Halkier,
       C. Haettig, H. Heiberg, T. Helgaker, A. C. Hennum,
       H. Hettema, E. Hjertenaes, S. Hoest, I.-M. Hoeyvik,
       M. F. Iozzi, B. Jansik, H. J. Aa. Jensen, D. Jonsson,
       P. Joergensen, M. Kaminski, J. Kauczor, S. Kirpekar,
       T. Kjaergaard, W. Klopper, S. Knecht, R. Kobayashi, H. Koch,
       J. Kongsted, A. Krapp, K. Kristensen, A. Ligabue,
       O. B. Lutnaes, J. I. Melo, K. V. Mikkelsen, R. H. Myhre,
       C. Neiss, C. B. Nielsen, P. Norman, J. Olsen,
       J. M. H. Olsen, A. Osted, M. J. Packer, F. Pawlowski,
       T. B. Pedersen, P. F. Provasi, S. Reine, Z. Rinkevicius,
       T. A. Ruden, K. Ruud, V. Rybkin, P. Salek, C. C. M. Samson,
       A. Sanchez de Meras, T. Saue, S. P. A. Sauer,
       B. Schimmelpfennig, K. Sneskov, A. H. Steindal,
       K. O. Sylvester-Hvid, P. R. Taylor, A. M. Teale,
       E. I. Tellgren, D. P. Tew, A. J. Thorvaldsen, L. Thoegersen,
       O. Vahtras, M. A. Watson, D. J. D. Wilson, M. Ziolkowski
       and H. Agren,
       "The Dalton quantum chemistry program system",
       WIREs Comput. Mol. Sci. 2013. (doi: 10.1002/wcms.1172)
    
    and
    
       Dalton, a Molecular Electronic Structure Program,
       Release DALTON2015.alpha (2015), see http://daltonprogram.org
   ----------------------------------------------------------------------------

    Authors in alphabetical order (major contribution(s) in parenthesis):

  Kestutis Aidas,           Vilnius University,           Lithuania   (QM/MM)
  Celestino Angeli,         University of Ferrara,        Italy       (NEVPT2)
  Keld L. Bak,              UNI-C,                        Denmark     (AOSOPPA, non-adiabatic coupling, magnetic properties)
  Vebjoern Bakken,          University of Oslo,           Norway      (DALTON; geometry optimizer, symmetry detection)
  Radovan Bast,             KTH Stockholm,                Sweden      (DALTON installation and execution frameworks)
  Pablo Baudin,             University of Valencia,       Spain       (Cholesky excitation energies)
  Linus Boman,              NTNU,                         Norway      (Cholesky decomposition and subsystems)
  Ove Christiansen,         Aarhus University,            Denmark     (CC module)
  Renzo Cimiraglia,         University of Ferrara,        Italy       (NEVPT2)
  Sonia Coriani,            University of Trieste,        Italy       (CC module, MCD in RESPONS)
  Janusz Cukras,            University of Trieste,        Italy       (MChD in RESPONS)
  Paal Dahle,               University of Oslo,           Norway      (Parallelization)
  Erik K. Dalskov,          UNI-C,                        Denmark     (SOPPA)
  Thomas Enevoldsen,        Univ. of Southern Denmark,    Denmark     (SOPPA)
  Janus J. Eriksen,         Aarhus University,            Denmark     (Polarizable embedding model, TDA)
  Berta Fernandez,          U. of Santiago de Compostela, Spain       (doublet spin, ESR in RESPONS)
  Lara Ferrighi,            Aarhus University,            Denmark     (PCM Cubic response)
  Heike Fliegl,             University of Oslo,           Norway      (CCSD(R12))
  Luca Frediani,            UiT The Arctic U. of Norway,  Norway      (PCM)
  Bin Gao,                  UiT The Arctic U. of Norway,  Norway      (Gen1Int library)
  Christof Haettig,         Ruhr-University Bochum,       Germany     (CC module)
  Kasper Hald,              Aarhus University,            Denmark     (CC module)
  Asger Halkier,            Aarhus University,            Denmark     (CC module)
  Erik D. Hedegaard,        Univ. of Southern Denmark,    Denmark     (Polarizable embedding model, QM/MM)
  Hanne Heiberg,            University of Oslo,           Norway      (geometry analysis, selected one-electron integrals)
  Trygve Helgaker,          University of Oslo,           Norway      (DALTON; ABACUS, ERI, DFT modules, London, and much more)
  Alf Christian Hennum,     University of Oslo,           Norway      (Parity violation)
  Hinne Hettema,            University of Auckland,       New Zealand (quadratic response in RESPONS; SIRIUS supersymmetry)
  Eirik Hjertenaes,         NTNU,                         Norway      (Cholesky decomposition)
  Maria Francesca Iozzi,    University of Oslo,           Norway      (RPA)
  Brano Jansik              Technical Univ. of Ostrava    Czech Rep.  (DFT cubic response)
  Hans Joergen Aa. Jensen,  Univ. of Southern Denmark,    Denmark     (DALTON; SIRIUS, RESPONS, ABACUS modules, London, and much more)
  Dan Jonsson,              UiT The Arctic U. of Norway,  Norway      (cubic response in RESPONS module)
  Poul Joergensen,          Aarhus University,            Denmark     (RESPONS, ABACUS, and CC modules)
  Maciej Kaminski,          University of Warsaw,         Poland      (CPPh in RESPONS)
  Joanna Kauczor,           Linkoeping University,        Sweden      (Complex polarization propagator (CPP) module)
  Sheela Kirpekar,          Univ. of Southern Denmark,    Denmark     (Mass-velocity & Darwin integrals)
  Wim Klopper,              KIT Karlsruhe,                Germany     (R12 code in CC, SIRIUS, and ABACUS modules)
  Stefan Knecht,            ETH Zurich,                   Switzerland (Parallel CI and MCSCF)
  Rika Kobayashi,           Australian National Univ.,    Australia   (DIIS in CC, London in MCSCF)
  Henrik Koch,              NTNU,                         Norway      (CC module, Cholesky decomposition)
  Jacob Kongsted,           Univ. of Southern Denmark,    Denmark     (Polarizable embedding model, QM/MM)
  Andrea Ligabue,           University of Modena,         Italy       (CTOCD, AOSOPPA)
  Nanna H. List             Univ. of Southern Denmark,    Denmark     (Polarizable embedding model)
  Ola B. Lutnaes,           University of Oslo,           Norway      (DFT Hessian)
  Juan I. Melo,             University of Buenos Aires,   Argentina   (LRESC, Relativistic Effects on NMR Shieldings)
  Kurt V. Mikkelsen,        University of Copenhagen,     Denmark     (MC-SCRF and QM/MM)
  Rolf H. Myhre,            NTNU,                         Norway      (Cholesky, subsystems and ECC2)
  Christian Neiss,          Univ. Erlangen-Nuernberg,     Germany     (CCSD(R12))
  Christian B. Nielsen,     University of Copenhagen,     Denmark     (QM/MM)
  Patrick Norman,           Linkoeping University,        Sweden      (Cubic response and complex response in RESPONS)
  Jeppe Olsen,              Aarhus University,            Denmark     (SIRIUS CI/density modules)
  Jogvan Magnus H. Olsen,   Univ. of Southern Denmark,    Denmark     (Polarizable embedding model, QM/MM)
  Anders Osted,             Copenhagen University,        Denmark     (QM/MM)
  Martin J. Packer,         University of Sheffield,      UK          (SOPPA)
  Filip Pawlowski,          Kazimierz Wielki University,  Poland      (CC3)
  Morten N. Pedersen,       Univ. of Southern Denmark,    Denmark     (Polarizable embedding model)
  Thomas B. Pedersen,       University of Oslo,           Norway      (Cholesky decomposition)
  Patricio F. Provasi,      University of Northeastern,   Argentina   (Analysis of coupling constants in localized orbitals)
  Zilvinas Rinkevicius,     KTH Stockholm,                Sweden      (open-shell DFT, ESR)
  Elias Rudberg,            KTH Stockholm,                Sweden      (DFT grid and basis info)
  Torgeir A. Ruden,         University of Oslo,           Norway      (Numerical derivatives in ABACUS)
  Kenneth Ruud,             UiT The Arctic U. of Norway,  Norway      (DALTON; ABACUS magnetic properties and much more)
  Pawel Salek,              KTH Stockholm,                Sweden      (DALTON; DFT code)
  Claire C. M. Samson       University of Karlsruhe       Germany     (Boys localization, r12 integrals in ERI)
  Alfredo Sanchez de Meras, University of Valencia,       Spain       (CC module, Cholesky decomposition)
  Trond Saue,               Paul Sabatier University,     France      (direct Fock matrix construction)
  Stephan P. A. Sauer,      University of Copenhagen,     Denmark     (SOPPA(CCSD), SOPPA prop., AOSOPPA, vibrational g-factors)
  Bernd Schimmelpfennig,    Forschungszentrum Karlsruhe,  Germany     (AMFI module)
  Kristian Sneskov,         Aarhus University,            Denmark     (Polarizable embedding model, QM/MM)
  Arnfinn H. Steindal,      UiT The Arctic U. of Norway,  Norway      (parallel QM/MM, Polarizable embedding model)
  Casper Steinmann,         Univ. of Southern Denmark,    Denmark     (QFIT, Polarizable embedding model)
  K. O. Sylvester-Hvid,     University of Copenhagen,     Denmark     (MC-SCRF)
  Peter R. Taylor,          VLSCI/Univ. of Melbourne,     Australia   (Symmetry handling ABACUS, integral transformation)
  Andrew M. Teale,          University of Nottingham,     England     (DFT-AC, DFT-D)
  David P. Tew,             University of Bristol,        England     (CCSD(R12))
  Olav Vahtras,             KTH Stockholm,                Sweden      (triplet response, spin-orbit, ESR, TDDFT, open-shell DFT)
  David J. Wilson,          La Trobe University,          Australia   (DFT Hessian and DFT magnetizabilities)
  Hans Agren,               KTH Stockholm,                Sweden      (SIRIUS module, RESPONS, MC-SCRF solvation model)
 --------------------------------------------------------------------------------

     Date and time (Linux)  : Mon Feb 23 19:00:51 2015
     Host name              : foeroyar                                

 * Work memory size             :    64000000 =  488.28 megabytes.

 * Directories for basis set searches:
   1) /home/magnus/Projects/dalton_devel/dalton/DALTON/test/pehf_damp
   2) /home/magnus/Projects/dalton_devel/dalton/build_pelib/basis


Compilation information
-----------------------

 Who compiled             | magnus
 Host                     | foeroyar
 System                   | Linux-3.18.6-200.fc21.x86_64
 CMake generator          | Unix Makefiles
 Processor                | x86_64
 64-bit integers          | OFF
 MPI                      | ON
 Fortran compiler         | /usr/local/bin/mpif90
 Fortran compiler version | GNU Fortran (GCC) 4.9.2 20150212 (Red Hat 4.9.2-6)
 C compiler               | /usr/local/bin/mpicc
 C compiler version       | gcc (GCC) 4.9.2 20150212 (Red Hat 4.9.2-6)
 C++ compiler             | /usr/local/bin/mpicxx
 C++ compiler version     | unknown
 BLAS                     | /lib64/libblas.so
 LAPACK                   | /lib64/liblapack.so
 Static linking           | OFF
 Last Git revision        | 5238537d2eab9c23858149b88466e4eda8e39bfc
 Git branch               | [32mpe/develop[m
 Configuration time       | 2015-02-23 15:06:18.814013

 * Sequential calculation.


   Content of the .dal input file
 ----------------------------------

**DALTON                                          
.RUN WAVE FUNCTION                                
.PEQM                                             
*PEQM                                             
.DAMP CORE                                        
2.1304                                            
8                                                 
8.6959                                            
8.6959                                            
8.6959                                            
5.7494                                            
2.7927                                            
2.7927                                            
2.7927                                            
2.7927                                            
.VERBOSE                                          
**WAVE FUNCTIONS                                  
.HF                                               
**END OF                                          


   Content of the .mol file
 ----------------------------

BASIS                                                                          
STO-3G                                                                         
Acrolein                                                                       
------------------------                                                       
AtomTypes=3 NoSymmetry Angstrom                                                
Charge=6.0 Atoms=3                                                             
C             -0.145335   -0.546770    0.000607                                
C              1.274009   -0.912471   -0.000167                                
C              1.630116   -2.207690   -0.000132                                
Charge=8.0 Atoms=1                                                             
O             -0.560104    0.608977    0.000534                                
Charge=1.0 Atoms=4                                                             
H             -0.871904   -1.386459    0.001253                                
H              2.004448   -0.101417   -0.000710                                
H              0.879028   -3.000685    0.000484                                
H              2.675323   -2.516779   -0.000673                                


       *******************************************************************
       *********** Output from DALTON general input processing ***********
       *******************************************************************

 --------------------------------------------------------------------------------
   Overall default print level:    0
   Print level for DALTON.STAT:    1

    HERMIT 1- and 2-electron integral sections will be executed
    "Old" integral transformation used (limited to max 255 basis functions)
    Wave function sections will be executed (SIRIUS module)
    Environment is modeled using polarizable embedding scheme (PE library)
 --------------------------------------------------------------------------------


   ****************************************************************************
   *************** Output of molecule and basis set information ***************
   ****************************************************************************


    The two title cards from your ".mol" input:
    ------------------------------------------------------------------------
 1: Acrolein                                                                
 2: ------------------------                                                
    ------------------------------------------------------------------------

  Coordinates are entered in Angstrom and converted to atomic units.
          - Conversion factor : 1 bohr = 0.52917721 A

  Atomic type no.    1
  --------------------
  Nuclear charge:   6.00000
  Number of symmetry independent centers:    3
  Number of basis sets to read;    2
  Basis set file used for this atomic type with Z =   6 :
     "/home/magnus/Projects/dalton_devel/dalton/build_pelib/basis/STO-3G"

  Atomic type no.    2
  --------------------
  Nuclear charge:   8.00000
  Number of symmetry independent centers:    1
  Number of basis sets to read;    2
  Basis set file used for this atomic type with Z =   8 :
     "/home/magnus/Projects/dalton_devel/dalton/build_pelib/basis/STO-3G"

  Atomic type no.    3
  --------------------
  Nuclear charge:   1.00000
  Number of symmetry independent centers:    4
  Number of basis sets to read;    2
  Basis set file used for this atomic type with Z =   1 :
     "/home/magnus/Projects/dalton_devel/dalton/build_pelib/basis/STO-3G"


                         SYMGRP: Point group information
                         -------------------------------

@    Point group: C1 


                                 Isotopic Masses
                                 ---------------

                           C          12.000000
                           C          12.000000
                           C          12.000000
                           O          15.994915
                           H           1.007825
                           H           1.007825
                           H           1.007825
                           H           1.007825

                       Total mass:    56.026215 amu
                       Natural abundance:  96.446 %

 Center-of-mass coordinates (a.u.):    0.973773   -1.393790    0.000425


  Atoms and basis sets
  --------------------

  Number of atom types :    3
  Total number of atoms:    8

  Basis set used is "STO-3G" from the basis set library.

  label    atoms   charge   prim   cont     basis
  ----------------------------------------------------------------------
  C           3    6.0000    15     5      [6s3p|2s1p]                                        
  O           1    8.0000    15     5      [6s3p|2s1p]                                        
  H           4    1.0000     3     1      [3s|1s]                                            
  ----------------------------------------------------------------------
  total:      8   30.0000    72    24
  ----------------------------------------------------------------------

  Threshold for neglecting AO integrals:  1.00D-12


  Cartesian Coordinates (a.u.)
  ----------------------------

  Total number of coordinates:   24
  C       :     1  x  -0.2746433464    2  y  -1.0332455534    3  z   0.0011470638
  C       :     4  x   2.4075280908    5  y  -1.7243202870    6  z  -0.0003155843
  C       :     7  x   3.0804727920    8  y  -4.1719294689    9  z  -0.0002494438
  O       :    10  x  -1.0584431615   11  y   1.1507997464   12  z   0.0010091138
  H       :    13  x  -1.6476597673   14  y  -2.6200277935   15  z   0.0023678268
  H       :    16  x   3.7878577518   17  y  -0.1916503544   18  z  -0.0013417055
  H       :    19  x   1.6611221762   20  y  -5.6704728374   21  z   0.0009146274
  H       :    22  x   5.0556277659   23  y  -4.7560230271   24  z  -0.0012717857


   Interatomic separations (in Angstrom):
   --------------------------------------

            C           C           C           O           H           H     
            ------      ------      ------      ------      ------      ------
 C     :    0.000000
 C     :    1.465700    0.000000
 C     :    2.431231    1.343281    0.000000
 O     :    1.227919    2.383018    3.568007    0.000000
 H     :    1.110397    2.197637    2.633349    2.019650    0.000000
 H     :    2.195429    1.091490    2.139278    2.661125    3.150355    0.000000
 H     :    2.659139    2.125241    1.092234    3.885970    2.381489    3.110036
 H     :    3.440501    2.130137    1.089951    4.498704    3.722962    2.506800

            H           H     
            ------      ------
 H     :    0.000000
 H     :    1.860334    0.000000


  Max    interatomic separation is    4.4987 Angstrom (    8.5013 Bohr)
  between atoms    8 and    4, "H     " and "O     ".

  Min HX interatomic separation is    1.0900 Angstrom (    2.0597 Bohr)

  Min YX interatomic separation is    1.2279 Angstrom (    2.3204 Bohr)


  Bond distances (Angstrom):
  --------------------------

                  atom 1     atom 2       distance
                  ------     ------       --------
  bond distance:  C          C            1.465700
  bond distance:  C          C            1.343281
  bond distance:  O          C            1.227919
  bond distance:  H          C            1.110397
  bond distance:  H          C            1.091490
  bond distance:  H          C            1.092234
  bond distance:  H          C            1.089951


  Bond angles (degrees):
  ----------------------

                  atom 1     atom 2     atom 3         angle
                  ------     ------     ------         -----
  bond angle:     C          C          O            124.190
  bond angle:     C          C          H            116.421
  bond angle:     O          C          H            119.389
  bond angle:     C          C          C            119.821
  bond angle:     C          C          H            117.558
  bond angle:     C          C          H            122.621
  bond angle:     C          C          H            121.182
  bond angle:     C          C          H            121.847
  bond angle:     H          C          H            116.971




 Principal moments of inertia (u*A**2) and principal axes
 --------------------------------------------------------

   IA      10.696865         -0.668732    0.743503    0.000230
   IB     108.794831          0.743503    0.668732   -0.000587
   IC     119.491696          0.000590    0.000221    1.000000


 Rotational constants
 --------------------

@    The molecule is planar.

               A                   B                   C

          47245.5253           4645.2483           4229.4069 MHz
            1.575941            0.154949            0.141078 cm-1


@  Nuclear repulsion energy :  102.664846860515 Hartree

  Reading potential input file for polarizable embedding calculation

    .------------------------------------------------.
    | Information from polarizable embedding library |
    `------------------------------------------------´

      Number of classical sites:     10

      Multipole moments upto 2nd order.

      Dipole-dipole polarizabilities.

      Iterative solver for induced moments will be used
      with convergence threshold: 1.0E-08

      Interactions between electrons/nuclei and inducible moments will be damped using Tholes scheme.
      Damping coefficient:  2.1304
      Core-region polarizabilities:
            C    8.6959
            C    8.6959
            C    8.6959
            O    5.7494
            H    2.7927
            H    2.7927
            H    2.7927
            H    2.7927


                     .---------------------------------------.
                     | Starting in Integral Section (HERMIT) |
                     `---------------------------------------'



 ***************************************************************************************
 ****************** Output from **INTEGRALS input processing (HERMIT) ******************
 ***************************************************************************************


 - Using defaults, no **INTEGRALS input found

 Default print level:        1

 * Nuclear model: Point charge

 Calculation of one- and two-electron Hamiltonian integrals.

 Center of mass  (bohr):      0.973773359129     -1.393789716280      0.000424788898
 Operator center (bohr):      0.000000000000      0.000000000000      0.000000000000
 Gauge origin    (bohr):      0.000000000000      0.000000000000      0.000000000000
 Dipole origin   (bohr):      0.000000000000      0.000000000000      0.000000000000


     ************************************************************************
     ************************** Output from HERINT **************************
     ************************************************************************


 Threshold for neglecting two-electron integrals:  1.00D-12
 HERMIT - Number of two-electron integrals written:       43383 ( 96.1% )
 HERMIT - Megabytes written:                              0.502

 >>>  Time used in TWOINT     is   0.22 seconds
 >>>> Total CPU  time used in HERMIT:   0.27 seconds
 >>>> Total wall time used in HERMIT:   0.27 seconds


                        .----------------------------------.
                        | End of Integral Section (HERMIT) |
                        `----------------------------------'



                   .--------------------------------------------.
                   | Starting in Wave Function Section (SIRIUS) |
                   `--------------------------------------------'


 *** Output from Huckel module :

     Using EWMO model:          T
     Using EHT  model:          F
     Number of Huckel orbitals each symmetry:   24

 EWMO - Energy Weighted Maximum Overlap - is a Huckel type method,
        which normally is better than Extended Huckel Theory.
 Reference: Linderberg and Ohrn, Propagators in Quantum Chemistry (Wiley, 1973)

 Huckel EWMO eigenvalues for symmetry :  1
          -20.684561     -11.357400     -11.351264     -11.346036      -1.724840
           -1.477979      -1.046134      -1.031570      -0.744448      -0.729231
           -0.672044      -0.551742      -0.540543      -0.516178      -0.438809
           -0.319925      -0.220785      -0.162868      -0.131432      -0.129120
           -0.123435      -0.114530      -0.093199      -0.085427

 **********************************************************************
 *SIRIUS* a direct, restricted step, second order MCSCF program       *
 **********************************************************************

 
     Date and time (Linux)  : Mon Feb 23 19:00:52 2015
     Host name              : foeroyar                                

 Title lines from ".mol" input file:
     Acrolein                                                                
     ------------------------                                                

 Print level on unit LUPRI =   2 is   0
 Print level on unit LUW4  =   2 is   5

@    Restricted, closed shell Hartree-Fock calculation.

 Initial molecular orbitals are obtained according to
 ".MOSTART EWMO  " input option

@    QM part is embedded in an environment :

@         Model: PE

     Wave function specification
     ============================

     Wave function environment is modeled using the
     polarizable embedding model (PE library).

@    Wave function type        >>> PE-HF <<<
@    Number of closed shell electrons          30
@    Number of electrons in active shells       0
@    Total charge of the molecule               0

@    Spin multiplicity and 2 M_S                1         0
@    Total number of symmetries                 1 (point group: C1 )
@    Reference state symmetry                   1 (irrep name : A  )

     Orbital specifications
     ======================
@    Abelian symmetry species          All |    1
@                                          |  A  
                                       --- |  ---
@    Occupied SCF orbitals              15 |   15
@    Secondary orbitals                  9 |    9
@    Total number of orbitals           24 |   24
@    Number of basis functions          24 |   24

     Optimization information
     ========================
@    Number of configurations                 1
@    Number of orbital rotations            135
     ------------------------------------------
@    Total number of variables              136

     Maximum number of Fock   iterations      0
     Maximum number of DIIS   iterations     60
     Maximum number of QC-SCF iterations     60
     Threshold for SCF convergence     1.00D-05


 ***********************************************
 ***** DIIS acceleration of SCF iterations *****
 ***********************************************

 C1-DIIS algorithm; max error vectors =    8

 Iter      Total energy     Embedding energy      Error norm     Delta(E)
 -----------------------------------------------------------------------------
     (Precalculated two-electron integrals are transformed to P-supermatrix elements.
      Threshold for discarding integrals :  1.00D-12 )
      Induced dipole moments converged in  4 iterations.

      Info from polarizable embedding library:
     ------------------------------------------

       Input density no.:   1

                        Total induced dipole moment
                       X              Y              Z
                 -0.03748930     0.04426553     0.00010056

@  1  -187.942945048     -4.313219145703E-02    2.01969D+00   -1.88D+02
      Virial theorem: -V/T =      2.003027
@      MULPOP C       0.93; C       0.24; C       0.42; O      -1.03; H      -0.16; H      -0.14; H      -0.12; H      -0.13; 
 -----------------------------------------------------------------------------
      Induced dipole moments converged in  4 iterations.

      Info from polarizable embedding library:
     ------------------------------------------

       Input density no.:   1

                        Total induced dipole moment
                       X              Y              Z
                 -0.00385833    -0.00592943    -0.00001245

@  2  -188.179658772      2.947899060227E-03    1.38343D+00   -2.37D-01
      Virial theorem: -V/T =      2.009447
@      MULPOP C      -0.40; C      -0.18; C      -0.25; O       0.37; H       0.07; H       0.15; H       0.12; H       0.12; 
 -----------------------------------------------------------------------------
      Induced dipole moments converged in  4 iterations.

      Info from polarizable embedding library:
     ------------------------------------------

       Input density no.:   1

                        Total induced dipole moment
                       X              Y              Z
                 -0.02163487     0.02351569     0.00003750

@  3  -188.312978647     -1.727418401939E-02    1.21877D-01   -1.33D-01
      Virial theorem: -V/T =      2.007802
@      MULPOP C       0.19; C      -0.10; C      -0.11; O      -0.29; H       0.05; H       0.09; H       0.08; H       0.08; 
 -----------------------------------------------------------------------------
      Induced dipole moments converged in  4 iterations.

      Info from polarizable embedding library:
     ------------------------------------------

       Input density no.:   1

                        Total induced dipole moment
                       X              Y              Z
                 -0.01975454     0.02208365     0.00003656

@  4  -188.314880873     -1.664340402330E-02    2.80955D-02   -1.90D-03
      Virial theorem: -V/T =      2.007894
@      MULPOP C       0.13; C      -0.09; C      -0.09; O      -0.26; H       0.07; H       0.10; H       0.07; H       0.08; 
 -----------------------------------------------------------------------------
      Induced dipole moments converged in  3 iterations.

      Info from polarizable embedding library:
     ------------------------------------------

       Input density no.:   1

                        Total induced dipole moment
                       X              Y              Z
                 -0.01981445     0.02265560     0.00003566

@  5  -188.315035402     -1.659731177047E-02    9.56934D-03   -1.55D-04
      Virial theorem: -V/T =      2.007855
@      MULPOP C       0.14; C      -0.09; C      -0.10; O      -0.27; H       0.06; H       0.10; H       0.07; H       0.08; 
 -----------------------------------------------------------------------------
      Induced dipole moments converged in  3 iterations.

      Info from polarizable embedding library:
     ------------------------------------------

       Input density no.:   1

                        Total induced dipole moment
                       X              Y              Z
                 -0.01979949     0.02249762     0.00003528

@  6  -188.315049390     -1.661289991191E-02    2.75422D-03   -1.40D-05
      Virial theorem: -V/T =      2.007854
@      MULPOP C       0.14; C      -0.09; C      -0.09; O      -0.27; H       0.07; H       0.10; H       0.07; H       0.08; 
 -----------------------------------------------------------------------------
      Induced dipole moments converged in  3 iterations.

      Info from polarizable embedding library:
     ------------------------------------------

       Input density no.:   1

                        Total induced dipole moment
                       X              Y              Z
                 -0.01978968     0.02255388     0.00003490

@  7  -188.315050416     -1.660978783561E-02    7.03909D-04   -1.03D-06
      Virial theorem: -V/T =      2.007854
@      MULPOP C       0.14; C      -0.09; C      -0.10; O      -0.27; H       0.07; H       0.10; H       0.07; H       0.08; 
 -----------------------------------------------------------------------------
      Induced dipole moments converged in  3 iterations.

      Info from polarizable embedding library:
     ------------------------------------------

       Input density no.:   1

                        Total induced dipole moment
                       X              Y              Z
                 -0.01979558     0.02255093     0.00003467

@  8  -188.315050470     -1.661208731242E-02    1.39899D-04   -5.41D-08
      Virial theorem: -V/T =      2.007854
@      MULPOP C       0.14; C      -0.09; C      -0.10; O      -0.27; H       0.07; H       0.10; H       0.07; H       0.08; 
 -----------------------------------------------------------------------------
      Induced dipole moments converged in  3 iterations.

      Info from polarizable embedding library:
     ------------------------------------------

       Input density no.:   1

                        Total induced dipole moment
                       X              Y              Z
                 -0.01979628     0.02255188     0.00003459

@  9  -188.315050473     -1.661206541179E-02    3.15417D-05   -3.14D-09
      Virial theorem: -V/T =      2.007853
@      MULPOP C       0.14; C      -0.09; C      -0.10; O      -0.27; H       0.07; H       0.10; H       0.07; H       0.08; 
 -----------------------------------------------------------------------------
      Induced dipole moments converged in  3 iterations.

      Info from polarizable embedding library:
     ------------------------------------------

       Input density no.:   1

                        Total induced dipole moment
                       X              Y              Z
                 -0.01979654     0.02255223     0.00003458

@ 10  -188.315050473     -1.661216734027E-02    8.60388D-06    1.42D-10

@ *** DIIS converged in  10 iterations !
@     Converged SCF energy, gradient:   -188.315050472785    8.60D-06
    - total time used in SIRFCK :              0.00 seconds


 *** SCF orbital energy analysis ***
   (incl. contribution from polarizable embedding potential)

 Number of electrons :   30
 Orbital occupations :   15

 Sym       Hartree-Fock orbital energies

1 A     -20.28690577   -11.13811672   -11.05461373   -11.04540537    -1.34141687
         -1.02281984    -0.82726138    -0.73551665    -0.61541039    -0.60365621
         -0.52152712    -0.50279635    -0.47774369    -0.36042124    -0.32478376
          0.20521574     0.38402230     0.59686182     0.62710505     0.66023854
          0.73854240     0.84302074     0.92775635     1.04034411

    E(LUMO) :     0.20521574 au (symmetry 1)
  - E(HOMO) :    -0.32478376 au (symmetry 1)
  ------------------------------------------
    gap     :     0.52999950 au

    .--------------------------------------------------.
    | Final results from polarizable embedding library |
    `--------------------------------------------------´

        Polarizable embedding energy contributions:
       ---------------------------------------------

       Electrostatic contributions:
            Electronic                -0.432285565466
            Nuclear                    0.416357723102
            Multipole                  0.000000000000
            Total                     -0.015927842364

       Polarization contributions:
            Electronic                -0.039189476933
            Nuclear                    0.038387777579
            Multipole                  0.000117374378
            Total                     -0.000684324976

       Total PE energy:            -0.016612167340

               Polarizable embedding information:
              ------------------------------------

                       Induced dipole moments
       site          X              Y              Z
          1     0.00466732     0.00988938     0.00000453
          2     0.01208159     0.00646869     0.00000642
          3     0.00142901     0.00039364     0.00000035
          4     0.03202259     0.02240556     0.00002407
          5     0.00219878    -0.00030510    -0.00000124
          6    -0.01305610     0.00407923     0.00000323
          7    -0.01378744    -0.00629692     0.00000091
          8    -0.00135061    -0.00072656    -0.00000379
          9    -0.04171397    -0.01317456     0.00000804
         10    -0.00228770    -0.00018113    -0.00000794

                      Total induced dipole moment
                     X              Y              Z
               -0.01979654     0.02255223     0.00003458


 >>> Writing SIRIFC interface file

 >>>> CPU and wall time for SCF :       0.397       0.396


                       .-----------------------------------.
                       | >>> Final results from SIRIUS <<< |
                       `-----------------------------------'


@    Spin multiplicity:           1
@    Spatial symmetry:            1 ( irrep  A   in C1  )
@    Total charge of molecule:    0

@    Final HF energy:            -188.315050472785                 
@    Nuclear repulsion:           102.664846860515
@    Electronic energy:          -290.963285165960
@    Embedding energy:             -0.016612167340

@    Final gradient norm:           0.000008603882

 
     Date and time (Linux)  : Mon Feb 23 19:00:52 2015
     Host name              : foeroyar                                

File label for MO orbitals:  23Feb15   FOCKDIIS

 (Only coefficients >0.0100 are printed.)

 Molecular orbitals for symmetry species 1  (A  )
 ------------------------------------------------

    Orbital         1        2        3        4        5        6        7
   1 C   :1s    -0.0005  -0.9926   0.0004   0.0013   0.1236  -0.0654   0.1388
   2 C   :1s     0.0071  -0.0332  -0.0000  -0.0065  -0.2843   0.1845  -0.4272
   3 C   :2px   -0.0021  -0.0003  -0.0001  -0.0043   0.0478   0.1137  -0.1065
   4 C   :2py    0.0059  -0.0005   0.0002   0.0011  -0.1466  -0.0900   0.1310
   6 C   :1s     0.0000   0.0004   0.0392   0.9914   0.0214  -0.1794   0.0535
   7 C   :1s    -0.0003   0.0061  -0.0062   0.0366  -0.0517   0.4699  -0.1593
   8 C   :2px    0.0000  -0.0040  -0.0012  -0.0004   0.0282  -0.0163   0.1811
   9 C   :2py   -0.0006   0.0013   0.0043  -0.0016  -0.0078  -0.0928  -0.1656
  11 C   :1s    -0.0000   0.0003   0.9916  -0.0386   0.0045  -0.1572  -0.1475
  12 C   :1s    -0.0001  -0.0001   0.0353  -0.0091  -0.0108   0.4162   0.4328
  13 C   :2px   -0.0001  -0.0000  -0.0004   0.0013   0.0023  -0.0397   0.0558
  14 C   :2py   -0.0000   0.0000   0.0012  -0.0045  -0.0055   0.1050  -0.0572
  16 O   :1s    -0.9943  -0.0002   0.0000  -0.0000   0.2181   0.0460  -0.0786
  17 O   :1s    -0.0259   0.0058  -0.0001   0.0003  -0.7658  -0.1798   0.3399
  18 O   :2px   -0.0019   0.0007  -0.0000   0.0002  -0.0546   0.0214  -0.0691
  19 O   :2py    0.0052  -0.0016   0.0001  -0.0001   0.1494  -0.0072   0.1099
  21 H   :1s    -0.0002   0.0065  -0.0001   0.0001  -0.0319   0.0478  -0.1538
  22 H   :1s     0.0002  -0.0000  -0.0002  -0.0067  -0.0083   0.0991  -0.0515
  23 H   :1s     0.0000   0.0001  -0.0067   0.0004  -0.0019   0.0984   0.1512
  24 H   :1s     0.0000   0.0001  -0.0067   0.0004  -0.0011   0.0902   0.1899

    Orbital         8        9       10       11       12       13       14
   1 C   :1s    -0.0911   0.0071   0.0551   0.0056   0.0288  -0.0000  -0.0048
   2 C   :1s     0.2963  -0.0207  -0.1872  -0.0145  -0.1103   0.0000   0.0174
   3 C   :2px   -0.2390  -0.3752   0.0196   0.0855  -0.2029   0.0004   0.1977
   4 C   :2py   -0.1728  -0.1144  -0.2297  -0.3700   0.0787   0.0002   0.0576
   5 C   :2pz    0.0002   0.0003   0.0000   0.0001   0.0002   0.5632  -0.0001
   6 C   :1s     0.1076  -0.0308  -0.0345   0.0041  -0.0183   0.0000  -0.0360
   7 C   :1s    -0.3314   0.1017   0.0983  -0.0005   0.0798  -0.0000   0.1580
   8 C   :2px   -0.1334   0.3083  -0.0748  -0.0547   0.2283   0.0002  -0.3121
   9 C   :2py   -0.1452  -0.0716  -0.2805   0.3251   0.2455   0.0000   0.0579
  10 C   :2pz    0.0001  -0.0002   0.0001   0.0000  -0.0001   0.2919   0.0002
  11 C   :1s    -0.0566   0.0157   0.0139   0.0234   0.0103  -0.0000   0.0069
  12 C   :1s     0.1768  -0.0646  -0.0626  -0.0654  -0.0287   0.0000  -0.0217
  13 C   :2px   -0.0494   0.1953  -0.3283   0.1852  -0.3539   0.0001   0.0721
  14 C   :2py   -0.1705   0.2747   0.2317  -0.2836  -0.2227   0.0001  -0.0643
  15 C   :2pz    0.0001  -0.0002   0.0001  -0.0000   0.0003   0.1873  -0.0000
  16 O   :1s     0.0422   0.0015  -0.0747  -0.0577   0.0117  -0.0000  -0.0013
  17 O   :1s    -0.1932  -0.0091   0.3806   0.3194  -0.0677   0.0000   0.0092
  18 O   :2px   -0.1236  -0.3427  -0.2210  -0.1912  -0.2208   0.0004  -0.7942
  19 O   :2py   -0.1702  -0.1258   0.3485   0.4972  -0.1872   0.0002  -0.2845
  20 O   :2pz    0.0001   0.0002   0.0000  -0.0000   0.0002   0.5768   0.0006
  21 H   :1s     0.2769   0.2014   0.0368   0.2023   0.0096  -0.0000  -0.3533
  22 H   :1s    -0.2441   0.1541  -0.1392   0.1776   0.3446  -0.0000  -0.1236
  23 H   :1s     0.1767  -0.2793   0.0193   0.0489   0.3819  -0.0000  -0.0578
  24 H   :1s     0.0712   0.0556  -0.3244   0.2018  -0.2856   0.0000   0.1031

    Orbital        15       16       17       18       19       20       21
   1 C   :1s    -0.0000   0.0000   0.0000   0.0143  -0.1917   0.0177  -0.0006
   2 C   :1s     0.0000  -0.0000  -0.0000  -0.0883   1.1839  -0.1143   0.0218
   3 C   :2px    0.0001  -0.0003  -0.0004  -0.3381   0.0346  -0.0618  -0.8905
   4 C   :2py    0.0000  -0.0001  -0.0002  -0.2789  -0.4584   0.1676  -0.2492
   5 C   :2pz    0.1703  -0.5360  -0.6706   0.0003   0.0001  -0.0000   0.0006
   6 C   :1s    -0.0000  -0.0000   0.0000   0.0515   0.1061   0.0122  -0.1868
   7 C   :1s     0.0000   0.0000  -0.0000  -0.3177  -0.6268  -0.0475   1.2331
   8 C   :2px   -0.0003  -0.0002   0.0004  -0.5131   0.4219  -0.1284   0.0047
   9 C   :2py   -0.0001  -0.0001   0.0001  -0.3427  -0.2335   0.2851   0.2004
  10 C   :2pz   -0.5659  -0.4002   0.7301   0.0003  -0.0002   0.0000  -0.0000
  11 C   :1s    -0.0000   0.0000  -0.0000  -0.0042  -0.0388  -0.2035   0.0529
  12 C   :1s     0.0000  -0.0000   0.0000   0.0117   0.2264   1.3027  -0.3331
  13 C   :2px   -0.0003   0.0004  -0.0003  -0.6033   0.3039   0.0475  -0.0081
  14 C   :2py   -0.0001   0.0001  -0.0001  -0.1969  -0.0365  -0.4671  -0.4167
  15 C   :2pz   -0.5858   0.6326  -0.5301   0.0004  -0.0002   0.0001   0.0001
  16 O   :1s    -0.0000  -0.0000  -0.0000  -0.0178   0.0223   0.0101   0.0039
  17 O   :1s     0.0000  -0.0000   0.0000   0.1244  -0.1270  -0.0742  -0.0283
  18 O   :2px    0.0002   0.0003   0.0003   0.1659  -0.0369  -0.0319   0.2200
  19 O   :2py    0.0001   0.0002   0.0001  -0.1106   0.1903   0.0785   0.1265
  20 O   :2pz    0.4121   0.5837   0.4482  -0.0001  -0.0000  -0.0000  -0.0002
  21 H   :1s     0.0000   0.0000  -0.0000  -0.3592  -0.9172   0.1875  -0.6372
  22 H   :1s    -0.0000   0.0000   0.0001   0.8181   0.2528  -0.0677  -0.6989
  23 H   :1s     0.0000   0.0000  -0.0000  -0.5802   0.1107  -0.9321  -0.0673
  24 H   :1s    -0.0000   0.0000   0.0000   0.5294  -0.4410  -0.8054   0.0778

    Orbital        22       23       24
   1 C   :1s    -0.1183   0.0249  -0.0387
   2 C   :1s     0.7778  -0.1793   0.2557
   3 C   :2px   -0.1851  -0.6839  -0.1198
   4 C   :2py    0.6535   0.2353   0.8372
   6 C   :1s     0.0535   0.0303  -0.0695
   7 C   :1s    -0.3754  -0.2462   0.5460
   8 C   :2px    0.1997  -0.9719  -0.1125
   9 C   :2py    0.4634   0.3093  -1.0291
  11 C   :1s    -0.0307  -0.0449   0.0840
  12 C   :1s     0.2257   0.3345  -0.6636
  13 C   :2px   -0.6954   0.5632   0.3680
  14 C   :2py    0.4007   0.6971  -0.7158
  16 O   :1s     0.0881   0.0264   0.0682
  17 O   :1s    -0.6323  -0.1997  -0.5183
  18 O   :2px   -0.2581   0.0468  -0.2005
  19 O   :2py    0.6638   0.2388   0.4947
  21 H   :1s    -0.0793  -0.1651   0.2454
  22 H   :1s    -0.2407   0.4029   0.3749
  23 H   :1s    -0.2209   0.5470   0.0474
  24 H   :1s     0.5318  -0.3789  -0.1526



 >>>> Total CPU  time used in SIRIUS :      0.40 seconds
 >>>> Total wall time used in SIRIUS :      0.40 seconds

 
     Date and time (Linux)  : Mon Feb 23 19:00:52 2015
     Host name              : foeroyar                                


                     .---------------------------------------.
                     | End of Wave Function Section (SIRIUS) |
                     `---------------------------------------'

 >>>> Total CPU  time used in DALTON:   0.68 seconds
 >>>> Total wall time used in DALTON:   0.68 seconds

 
     Date and time (Linux)  : Mon Feb 23 19:00:52 2015
     Host name              : foeroyar                                
