

     ************************************************************************
     *************** Dalton - An Electronic Structure Program ***************
     ************************************************************************

    This is output from DALTON release Dalton2019.alpha (2019)
         ( Web site: http://daltonprogram.org )

   ----------------------------------------------------------------------------

    NOTE:
     
    Dalton is an experimental code for the evaluation of molecular
    properties using (MC)SCF, DFT, CI, and CC wave functions.
    The authors accept no responsibility for the performance of
    the code or for the correctness of the results.
     
    The code (in whole or part) is provided under a licence and
    is not to be reproduced for further distribution without
    the written permission of the authors or their representatives.
     
    See the home page "http://daltonprogram.org" for further information.
     
    If results obtained with this code are published,
    the appropriate citations would be both of:
     
       K. Aidas, C. Angeli, K. L. Bak, V. Bakken, R. Bast,
       L. Boman, O. Christiansen, R. Cimiraglia, S. Coriani,
       P. Dahle, E. K. Dalskov, U. Ekstroem,
       T. Enevoldsen, J. J. Eriksen, P. Ettenhuber, B. Fernandez,
       L. Ferrighi, H. Fliegl, L. Frediani, K. Hald, A. Halkier,
       C. Haettig, H. Heiberg, T. Helgaker, A. C. Hennum,
       H. Hettema, E. Hjertenaes, S. Hoest, I.-M. Hoeyvik,
       M. F. Iozzi, B. Jansik, H. J. Aa. Jensen, D. Jonsson,
       P. Joergensen, J. Kauczor, S. Kirpekar,
       T. Kjaergaard, W. Klopper, S. Knecht, R. Kobayashi, H. Koch,
       J. Kongsted, A. Krapp, K. Kristensen, A. Ligabue,
       O. B. Lutnaes, J. I. Melo, K. V. Mikkelsen, R. H. Myhre,
       C. Neiss, C. B. Nielsen, P. Norman, J. Olsen,
       J. M. H. Olsen, A. Osted, M. J. Packer, F. Pawlowski,
       T. B. Pedersen, P. F. Provasi, S. Reine, Z. Rinkevicius,
       T. A. Ruden, K. Ruud, V. Rybkin, P. Salek, C. C. M. Samson,
       A. Sanchez de Meras, T. Saue, S. P. A. Sauer,
       B. Schimmelpfennig, K. Sneskov, A. H. Steindal,
       K. O. Sylvester-Hvid, P. R. Taylor, A. M. Teale,
       E. I. Tellgren, D. P. Tew, A. J. Thorvaldsen, L. Thoegersen,
       O. Vahtras, M. A. Watson, D. J. D. Wilson, M. Ziolkowski
       and H. Agren,
       "The Dalton quantum chemistry program system",
       WIREs Comput. Mol. Sci. 2014, 4:269–284 (doi: 10.1002/wcms.1172)
     
    and
     
       Dalton, a molecular electronic structure program,
       Release Dalton2019.alpha (2019), see http://daltonprogram.org
   ----------------------------------------------------------------------------

    Authors in alphabetical order (major contribution(s) in parenthesis):

  Kestutis Aidas,           Vilnius University,           Lithuania   (QM/MM)
  Celestino Angeli,         University of Ferrara,        Italy       (NEVPT2)
  Keld L. Bak,              UNI-C,                        Denmark     (AOSOPPA, non-adiabatic coupling, magnetic properties)
  Vebjoern Bakken,          University of Oslo,           Norway      (DALTON; geometry optimizer, symmetry detection)
  Radovan Bast,             UiT The Arctic U. of Norway,  Norway      (DALTON installation and execution frameworks)
  Pablo Baudin,             University of Valencia,       Spain       (Cholesky excitation energies)
  Linus Boman,              NTNU,                         Norway      (Cholesky decomposition and subsystems)
  Ove Christiansen,         Aarhus University,            Denmark     (CC module)
  Renzo Cimiraglia,         University of Ferrara,        Italy       (NEVPT2)
  Sonia Coriani,            Technical Univ. of Denmark,   Denmark     (CC module, MCD in RESPONS)
  Janusz Cukras,            University of Trieste,        Italy       (MChD in RESPONS)
  Paal Dahle,               University of Oslo,           Norway      (Parallelization)
  Erik K. Dalskov,          UNI-C,                        Denmark     (SOPPA)
  Thomas Enevoldsen,        Univ. of Southern Denmark,    Denmark     (SOPPA)
  Janus J. Eriksen,         Aarhus University,            Denmark     (Polarizable embedding model, TDA)
  Rasmus Faber,             University of Copenhagen,     Denmark     (Vib.avg. NMR with SOPPA, parallel AO-SOPPA)
  Tobias Fahleson,          KTH Stockholm,                Sweden      (Damped cubic response)
  Berta Fernandez,          U. of Santiago de Compostela, Spain       (doublet spin, ESR in RESPONS)
  Lara Ferrighi,            Aarhus University,            Denmark     (PCM Cubic response)
  Heike Fliegl,             University of Oslo,           Norway      (CCSD(R12))
  Luca Frediani,            UiT The Arctic U. of Norway,  Norway      (PCM)
  Bin Gao,                  UiT The Arctic U. of Norway,  Norway      (Gen1Int library)
  Christof Haettig,         Ruhr-University Bochum,       Germany     (CC module)
  Kasper Hald,              Aarhus University,            Denmark     (CC module)
  Asger Halkier,            Aarhus University,            Denmark     (CC module)
  Frederik Beyer Hansen,    University of Copenhagen,     Denmark     (Parallel AO-SOPPA)
  Erik D. Hedegaard,        Univ. of Southern Denmark,    Denmark     (Polarizable embedding model, QM/MM)
  Hanne Heiberg,            University of Oslo,           Norway      (geometry analysis, selected one-electron integrals)
  Trygve Helgaker,          University of Oslo,           Norway      (DALTON; ABACUS, ERI, DFT modules, London, and much more)
  Alf Christian Hennum,     University of Oslo,           Norway      (Parity violation)
  Hinne Hettema,            University of Auckland,       New Zealand (quadratic response in RESPONS; SIRIUS supersymmetry)
  Eirik Hjertenaes,         NTNU,                         Norway      (Cholesky decomposition)
  Pi A. B. Haase,           University of Copenhagen,     Denmark     (Triplet AO-SOPPA)
  Maria Francesca Iozzi,    University of Oslo,           Norway      (RPA)
  Christoph Jacob           TU Braunschweig               Germany     (Frozen density embedding model)
  Brano Jansik              Technical Univ. of Ostrava    Czech Rep.  (DFT cubic response)
  Hans Joergen Aa. Jensen,  Univ. of Southern Denmark,    Denmark     (DALTON; SIRIUS, RESPONS, ABACUS modules, London, and much more)
  Dan Jonsson,              UiT The Arctic U. of Norway,  Norway      (cubic response in RESPONS module)
  Poul Joergensen,          Aarhus University,            Denmark     (RESPONS, ABACUS, and CC modules)
  Maciej Kaminski,          University of Warsaw,         Poland      (CPPh in RESPONS)
  Joanna Kauczor,           Linkoeping University,        Sweden      (Complex polarization propagator (CPP) module)
  Sheela Kirpekar,          Univ. of Southern Denmark,    Denmark     (Mass-velocity & Darwin integrals)
  Wim Klopper,              KIT Karlsruhe,                Germany     (R12 code in CC, SIRIUS, and ABACUS modules)
  Stefan Knecht,            ETH Zurich,                   Switzerland (Parallel CI and MCSCF)
  Rika Kobayashi,           Australian National Univ.,    Australia   (DIIS in CC, London in MCSCF)
  Henrik Koch,              NTNU,                         Norway      (CC module, Cholesky decomposition)
  Jacob Kongsted,           Univ. of Southern Denmark,    Denmark     (Polarizable embedding model, QM/MM)
  Andrea Ligabue,           University of Modena,         Italy       (CTOCD, AOSOPPA)
  Nanna H. List             Univ. of Southern Denmark,    Denmark     (Polarizable embedding model)
  Ola B. Lutnaes,           University of Oslo,           Norway      (DFT Hessian)
  Juan I. Melo,             University of Buenos Aires,   Argentina   (LRESC, Relativistic Effects on NMR Shieldings)
  Kurt V. Mikkelsen,        University of Copenhagen,     Denmark     (MC-SCRF and QM/MM)
  Rolf H. Myhre,            NTNU,                         Norway      (Subsystems and CC3)
  Christian Neiss,          Univ. Erlangen-Nuernberg,     Germany     (CCSD(R12))
  Christian B. Nielsen,     University of Copenhagen,     Denmark     (QM/MM)
  Patrick Norman,           KTH Stockholm,                Sweden      (Cubic response and complex frequency response in RESPONS)
  Jeppe Olsen,              Aarhus University,            Denmark     (SIRIUS CI/density modules)
  Jogvan Magnus H. Olsen,   Univ. of Southern Denmark,    Denmark     (Polarizable embedding model, QM/MM)
  Anders Osted,             Copenhagen University,        Denmark     (QM/MM)
  Martin J. Packer,         University of Sheffield,      UK          (SOPPA)
  Filip Pawlowski,          Kazimierz Wielki University,  Poland      (CC3)
  Morten N. Pedersen,       Univ. of Southern Denmark,    Denmark     (Polarizable embedding model)
  Thomas B. Pedersen,       University of Oslo,           Norway      (Cholesky decomposition)
  Patricio F. Provasi,      University of Northeastern,   Argentina   (Analysis of coupling constants in localized orbitals)
  Zilvinas Rinkevicius,     KTH Stockholm,                Sweden      (open-shell DFT, ESR)
  Elias Rudberg,            KTH Stockholm,                Sweden      (DFT grid and basis info)
  Torgeir A. Ruden,         University of Oslo,           Norway      (Numerical derivatives in ABACUS)
  Kenneth Ruud,             UiT The Arctic U. of Norway,  Norway      (DALTON; ABACUS magnetic properties and much more)
  Pawel Salek,              KTH Stockholm,                Sweden      (DALTON; DFT code)
  Claire C. M. Samson       University of Karlsruhe       Germany     (Boys localization, r12 integrals in ERI)
  Alfredo Sanchez de Meras, University of Valencia,       Spain       (CC module, Cholesky decomposition)
  Trond Saue,               Paul Sabatier University,     France      (direct Fock matrix construction)
  Stephan P. A. Sauer,      University of Copenhagen,     Denmark     (SOPPA(CCSD), SOPPA prop., AOSOPPA, vibrational g-factors)
  Andre S. P. Gomes,        CNRS/Universite de Lille,     France      (Frozen density embedding model)
  Bernd Schimmelpfennig,    Forschungszentrum Karlsruhe,  Germany     (AMFI module)
  Kristian Sneskov,         Aarhus University,            Denmark     (Polarizable embedding model, QM/MM)
  Arnfinn H. Steindal,      UiT The Arctic U. of Norway,  Norway      (parallel QM/MM, Polarizable embedding model)
  Casper Steinmann,         Univ. of Southern Denmark,    Denmark     (QFIT, Polarizable embedding model)
  K. O. Sylvester-Hvid,     University of Copenhagen,     Denmark     (MC-SCRF)
  Peter R. Taylor,          VLSCI/Univ. of Melbourne,     Australia   (Symmetry handling ABACUS, integral transformation)
  Andrew M. Teale,          University of Nottingham,     England     (DFT-AC, DFT-D)
  David P. Tew,             University of Bristol,        England     (CCSD(R12))
  Olav Vahtras,             KTH Stockholm,                Sweden      (triplet response, spin-orbit, ESR, TDDFT, open-shell DFT)
  Lucas Visscher,           Vrije Universiteit Amsterdam, Netherlands (Frozen density embedding model)
  David J. Wilson,          La Trobe University,          Australia   (DFT Hessian and DFT magnetizabilities)
  Hans Agren,               KTH Stockholm,                Sweden      (SIRIUS module, RESPONS, MC-SCRF solvation model)
 --------------------------------------------------------------------------------

     Date and time (Linux)  : Mon Mar 25 16:50:47 2019
     Host name              : fe1.deic.sdu.dk                         

 * Work memory size             :   320000000 =  2.384 gigabytes.

 * Directories for basis set searches:
   1) /work/sdujk/kjellgren/make_tests
   2) /gpfs/gss1/work/sdujk/kjellgren/programs/dalton/srdft_dalton_kjellgren/basis


Compilation information
-----------------------

 Who compiled             | kjellgren
 Host                     | fe1.deic.sdu.dk
 System                   | Linux-3.10.0-327.36.3.el7.x86_64
 CMake generator          | Unix Makefiles
 Processor                | x86_64
 64-bit integers          | OFF
 MPI                      | ON
 Fortran compiler         | /opt/sys/apps/intel/2018.05/impi_latest/intel64/bi
                          | n/mpiifort
 Fortran compiler version | unknown
 C compiler               | /opt/sys/apps/intel/2018.05/impi_latest/intel64/bi
                          | n/mpiicc
 C compiler version       | unknown
 C++ compiler             | /opt/sys/apps/intel/2018.05/impi_latest/intel64/bi
                          | n/mpiicpc
 C++ compiler version     | unknown
 Static linking           | OFF
 Last Git revision        | f0ba9eed7f8f4db8bbc492b7a0adccc8bec4cfdc
 Git branch               | srdft-kjellgren
 Configuration time       | 2019-03-25 16:27:40.844249

 * Sequential calculation.


   Content of the .dal input file
 ----------------------------------

**DALTON INPUT
.RUN WAVE FUNCTION
.DIRECT
**INTEGRALS
*TWOINT
.DOSRINTEGRALS
.ERF
 0.00001
**WAVE FUNCTIONS
.HFSRDFT
.MP2
.MCSRDFT
.SRFUN
 NULL CVWN5NOMUS
*SCF INPUT
.DOUBLY OCCUPIED
 3 1 1 0
*CI VECTOR
.SELECT
 1
*CONFIGURATION INPUT
.SYMMETRY
 2
.SPIN MUL
 3
.INACTIVE
 3 0 0 0
.ELECTRONS
 4
.CAS SPACE
 1 1 2 0
**END OF DALTON INPUT


   Content of the .mol file
 ----------------------------

ATOMBASIS
MC-srDFT Energy calculation with symmetry
Basis set specified with ATOMBASIS
    2
        8.    1      Basis=MINI(Scaled)
O     0.0 -0.2249058930 0.0
        1.    2      Bas=MINI(Scaled)
H1    1.45235 0.899623 0.0
H2   -1.45235 0.899623 0.0


       *******************************************************************
       *********** Output from DALTON general input processing ***********
       *******************************************************************

 --------------------------------------------------------------------------------
   Overall default print level:    0
   Print level for DALTON.STAT:    1

    AO-direct calculation (in sections where implemented)
    HERMIT 1- and 2-electron integral sections will be executed
    "Old" integral transformation used (limited to max 255 basis functions)
    Wave function sections will be executed (SIRIUS module)
 --------------------------------------------------------------------------------


   ****************************************************************************
   *************** Output of molecule and basis set information ***************
   ****************************************************************************


    The two title cards from your ".mol" input:
    ------------------------------------------------------------------------
 1: MC-srDFT Energy calculation with symmetry                               
 2: Basis set specified with ATOMBASIS                                      
    ------------------------------------------------------------------------



@ INFO - deprecated old .mol fixed format input has been detected:
    2                                                                           
@ INFO - this input format may not be supported in future releases.




  Atomic type no.    1
  --------------------
  Nuclear charge:   8.00000
  Number of symmetry independent centers:    1
  Number of basis sets to read;    2
  The basis set is "MINI(Scaled)" from the basis set library.
  Basis set file used for this atomic type with Z =   8 :
     "/gpfs/gss1/work/sdujk/kjellgren/programs/dalton/srdft_dalton_kjellgren/basis/MINI(Scaled)"

  Atomic type no.    2
  --------------------
  Nuclear charge:   1.00000
  Number of symmetry independent centers:    2
  Number of basis sets to read;    2
  The basis set is "MINI(Scaled)" from the basis set library.
  Basis set file used for this atomic type with Z =   1 :
     "/gpfs/gss1/work/sdujk/kjellgren/programs/dalton/srdft_dalton_kjellgren/basis/MINI(Scaled)"


                      SYMADD: Requested addition of symmetry
                      --------------------------------------

 Symmetry test threshold:  5.00E-06

@   The molecule is centered at center of mass and rotated
@   so principal axes of inertia are along coordinate axes.

 Symmetry class found: C(2v)          

 Symmetry Independent Centres             
 ----------------------------
O      8 :      0.00000000     0.00000000    -0.12585150  Isotope  1
H1     1 :      0.00000000     1.45235000     0.99867739  Isotope  1

 The following symmetry elements were found:   X  Y     


                         SYMGRP: Point group information
                         -------------------------------

@    Full point group is: C(2v)          
@    Represented as:      C2v

@  * The irrep name for each symmetry:    1: A1     2: B1     3: B2     4: A2 

   * The point group was generated by:

      Reflection in the yz-plane
      Reflection in the xz-plane

   * Group multiplication table

        |  E   C2z  Oxz  Oyz
   -----+--------------------
     E  |  E   C2z  Oxz  Oyz
    C2z | C2z   E   Oyz  Oxz
    Oxz | Oxz  Oyz   E   C2z
    Oyz | Oyz  Oxz  C2z   E 

   * Character table

        |  E   C2z  Oxz  Oyz
   -----+--------------------
    A1  |   1    1    1    1
    B1  |   1   -1    1   -1
    B2  |   1   -1   -1    1
    A2  |   1    1   -1   -1

   * Direct product table

        | A1   B1   B2   A2 
   -----+--------------------
    A1  | A1   B1   B2   A2 
    B1  | B1   A1   A2   B2 
    B2  | B2   A2   A1   B1 
    A2  | A2   B2   B1   A1 


                                 Isotopic Masses
                                 ---------------

                           O          15.994915
                           H1  _1      1.007825
                           H1  _2      1.007825

                       Total mass:    18.010565 amu
                       Natural abundance:  99.730 %

 Center-of-mass coordinates (a.u.):    0.000000   -0.000000   -0.000000
 Center-of-mass coordinates (Angs):    0.000000   -0.000000   -0.000000


  Atoms and basis sets
  --------------------

  Number of atom types :    2
  Total number of atoms:    3

  label    atoms   charge   prim   cont     basis
  ----------------------------------------------------------------------
  O           1    8.0000    15     5      [6s3p|2s1p]                                        
  H1          2    1.0000     3     1      [3s|1s]                                            
  ----------------------------------------------------------------------
  total:      3   10.0000    21     7
  ----------------------------------------------------------------------

  Threshold for neglecting AO integrals:  1.00D-12


  Cartesian Coordinates (a.u.)
  ----------------------------

  Total number of coordinates:    9
  O       :     1  x   0.0000000000    2  y   0.0000000000    3  z  -0.1258515023
  H1  / 1 :     4  x   0.0000000000    5  y   1.4523500000    6  z   0.9986773907
  H1  / 2 :     7  x   0.0000000000    8  y  -1.4523500000    9  z   0.9986773907


  Symmetry Coordinates
  --------------------

  Number of coordinates in each symmetry:     3    2    3    1

  Symmetry  A1  ( 1)

    1   O     z    3
    2   H1    y    [  5  -    8 ]/2
    3   H1    z    [  6  +    9 ]/2

  Symmetry  B1  ( 2)

    4   O     x    1
    5   H1    x    [  4  +    7 ]/2

  Symmetry  B2  ( 3)

    6   O     y    2
    7   H1    y    [  5  +    8 ]/2
    8   H1    z    [  6  -    9 ]/2

  Symmetry  A2  ( 4)

    9   H1    x    [  4  -    7 ]/2


   Interatomic separations (in Angstrom):
   --------------------------------------

            O           H1  _1      H1  _2
            ------      ------      ------
 O     :    0.000000
 H1  _1:    0.972000    0.000000
 H1  _2:    0.972000    1.537101    0.000000


  Max    interatomic separation is    1.5371 Angstrom (    2.9047 Bohr)
  between atoms    3 and    2, "H1  _2" and "H1  _1".

  Min HX interatomic separation is    0.9720 Angstrom (    1.8368 Bohr)


  Bond distances (Angstrom):
  --------------------------

                  atom 1     atom 2       distance
                  ------     ------       --------
  bond distance:  H1  _1     O            0.972000
  bond distance:  H1  _2     O            0.972000


  Bond angles (degrees):
  ----------------------

                  atom 1     atom 2     atom 3         angle
                  ------     ------     ------         -----
  bond angle:     H1  _1     O          H1  _2       104.500




 Principal moments of inertia (u*A**2) and principal axes
 --------------------------------------------------------

   IA       0.633889          0.000000    1.000000    0.000000
   IB       1.190584          0.000000    0.000000    1.000000
   IC       1.824473          1.000000    0.000000    0.000000


 Rotational constants
 --------------------

@    The molecule is planar.

               A                   B                   C

         797267.3370         424479.9976         277000.0210 MHz
           26.593976           14.159129            9.239726 cm-1


@  Nuclear repulsion energy :    9.055004525638 Hartree


  Symmetry Orbitals
  -----------------

  Number of orbitals in each symmetry:           4    1    2    0


  Symmetry  A1 ( 1)

    1     O        1s         1
    2     O        1s         2
    3     O        2pz        5
    4     H1       1s         6 +    7


  Symmetry  B1 ( 2)

    5     O        2px        3


  Symmetry  B2 ( 3)

    6     O        2py        4
    7     H1       1s         6 -    7


  No orbitals in symmetry  A2 ( 4)

  Symmetries of electric field:  B1 (2)  B2 (3)  A1 (1)

  Symmetries of magnetic field:  B2 (3)  B1 (2)  A2 (4)


                     .---------------------------------------.
                     | Starting in Integral Section (HERMIT) |
                     `---------------------------------------'



 ***************************************************************************************
 ****************** Output from **INTEGRALS input processing (HERMIT) ******************
 ***************************************************************************************



    *************************************************************************
    ****************** Output from HERMIT input processing ******************
    *************************************************************************


 Default print level:        1

 Calculation of one-electron Hamiltonian integrals.

 Center of mass  (bohr):      0.000000000000     -0.000000000000     -0.000000000000
 Operator center (bohr):      0.000000000000      0.000000000000      0.000000000000
 Gauge origin    (bohr):      0.000000000000     -0.000000000000     -0.000000000000
 Dipole origin   (bohr):      0.000000000000     -0.000000000000     -0.000000000000


  Set-up from HR2INP:
  -------------------

 Print level in TWOINT:    1

 DFT-hybrid : Using a Erf type two-elec. operator
              with the coupling parameter :    0.00001
 * Direct calculation of Fock matrices in AO-basis.
 * Program controlled screening thresholds used for this.
 * Separate density screening of Coulomb integral batches
 * Separate density screening of exchange integral batches


     ************************************************************************
     ************************** Output from HERINT **************************
     ************************************************************************



                      Nuclear contribution to dipole moments
                      --------------------------------------

                 au               Debye          C m (/(10**-30)

      z      0.99054276         2.51770841         8.39817128


  Total CPU  time used in HERMIT:   0.01 seconds
  Total wall time used in HERMIT:   0.01 seconds


                        .----------------------------------.
                        | End of Integral Section (HERMIT) |
                        `----------------------------------'



                   .--------------------------------------------.
                   | Starting in Wave Function Section (SIRIUS) |
                   `--------------------------------------------'


 *** Output from Huckel module :

     Using EWMO model:          F
     Using EHT  model:          T
     Number of Huckel orbitals each symmetry:    4    1    2    0

 Huckel EHT eigenvalues for symmetry :  1
          -20.704225      -1.499390      -0.671093      -0.296848

 Huckel EHT eigenvalues for symmetry :  2
           -0.616200

 Huckel EHT eigenvalues for symmetry :  3
           -0.731017      -0.261127

 SETCI, core memory needed for CI:
 LCINDX =         207
 LACIMX =         274
 LBCIMX =           0

 Number of determinants:             6

 Number of configurations:           5

 Time used in SETCI :      0.07s

 **********************************************************************
 *SIRIUS* a direct, restricted step, second order MCSCF program       *
 **********************************************************************

 
     Date and time (Linux)  : Mon Mar 25 16:50:47 2019
     Host name              : fe1.deic.sdu.dk                         

 Title lines from ".mol" input file:
     MC-srDFT Energy calculation with symmetry                               
     Basis set specified with ATOMBASIS                                      

 Print level on unit LUPRI =   2 is   0
 Print level on unit LUW4  =   2 is   5

@    MC-SCF optimization.
@              Type: complete active space calculation (CAS).

@    This is a combination run starting with
@              a restricted, closed shell HF-srDFT hybrid calculation
@              an MP2 calculation

 Fock matrices are calculated directly without use of integrals on disk.

 Initial molecular orbitals are obtained according to
 ".MOSTART EHT   " input option

     Wave function specification
     ============================
@    Wave function type        --- MC-SCF ---
@    Number of closed shell electrons           6
@    Number of electrons in active shells       4
@    Total charge of the molecule               0

@    Spin multiplicity and 2 M_S                3         2
@    Total number of symmetries                 4 (point group: C2v)
@    Reference state symmetry                   2 (irrep name : B1 )

@    This is a lrWFT-srDFT calculation using the 
@      NULL       short range exchange functional
@      CVWN5NOMUS short range correlation functional

@    sr-DFT and exact sr-HF exchange weights:    1.000000    0.000000

     Orbital specifications
     ======================
@    Abelian symmetry species          All |    1    2    3    4
@                                          |  A1   B1   B2   A2 
                                       --- |  ---  ---  ---  ---
@    Inactive orbitals                   3 |    3    0    0    0
@    Active orbitals                     4 |    1    1    2    0
@    Secondary orbitals                  0 |    0    0    0    0
@    Total number of orbitals            7 |    4    1    2    0
@    Number of basis functions           7 |    4    1    2    0

      -- Initial occupation of symmetries is determined from user input.                      
      -- Initial occupation of symmetries is :
@    Occupied SCF orbitals               5 |    3    1    1    0

     Optimization information
     ========================
@    Number of configurations                 5
@    Number of orbital rotations              3
     ------------------------------------------
@    Total number of variables                8

     Maximum number of macro iterations      25
     Maximum number of micro iterations     600
     Threshold for MCSCF gradient      1.00D-05
     Number of initial trial vectors          1
     Number of initial CI iterations          3
     Number of simultaneous trial vectors     1

@    This calculation converges to the lowest state for the specified symmetry and spin species.

     Maximum number of NEO/NR iterations  24


 ***********************************************
 ***** DIIS acceleration of SCF iterations *****
 ***********************************************

 C1-DIIS algorithm; max error vectors =    3

 Iter      Total energy        Error norm    Delta(E)  DIIS dim.
 -----------------------------------------------------------------------------

***  INFO  GETGAB: GABSRXXX not found on AOPROPER. Regenerating.
** Atom O   
* Grid spacing
 Value chosen:  0.131
 AH =    563.733160000000     
 RADERR =   1.000000000000000E-013
* Inner grid point: 3.68284E-06
* Outer point:
 Value chosen:     7.417
 Constant c: 2.62690E-05
 Number of points:    96
O     1   19128      96     434
** Atom H1  
* Grid spacing
 Value chosen:  0.142
 AH =    14.0681260000000     
 RADERR =   1.000000000000000E-013
* Inner grid point: 2.33132E-05
* Outer point:
 Value chosen:     8.165
 Constant c: 1.52850E-04
 Number of points:    77
H1    2   18274      77     434

   Number of grid points in quadrature:     37402 (100.0%)


   Ex-sr + Ec-sr                         -0.6663969205
 + EJsr = sr Coulomb energy              46.9968583727
 = Total E(srDFT)                        46.3304614521


 Corrections needed for correct CI energy evaluation:
 - 0.5 Tr(Vxc-sr Dcore)                   0.3729433670
 -     Tr(Vxc-sr Dval)                    0.0000000000
 - 0.5 Tr( (Jsr+HFXFAC*Ksr) Dval )        0.0000000000
   1  Screening settings (-IFTHRS, JTDIIS, DIFDEN, times)   -5    1    F  6.21D-02  6.30D-02
@  1    -67.1066655144        2.70175D+00   -6.71D+01    1
      Virial theorem: -V/T =      1.884476
@    MULPOP   O      -0.50; H1  _1  0.25; H1  _2  0.25; 
   1  Level shift: doubly occupied orbital energies shifted by -2.00D-01
 -----------------------------------------------------------------------------

   Ex-sr + Ec-sr                         -0.6575380818
 + EJsr = sr Coulomb energy              44.6779473389
 = Total E(srDFT)                        44.0204092571


 Corrections needed for correct CI energy evaluation:
 - 0.5 Tr(Vxc-sr Dcore)                   0.3682840557
 -     Tr(Vxc-sr Dval)                    0.0000000000
 - 0.5 Tr( (Jsr+HFXFAC*Ksr) Dval )        0.0000000000
   2  Screening settings (-IFTHRS, JTDIIS, DIFDEN, times)   -5    2    F  4.18D-02  4.30D-02
@  2    -67.2141825802        7.36345D-01   -1.08D-01    2
      Virial theorem: -V/T =      1.908593
@    MULPOP   O       0.21; H1  _1 -0.11; H1  _2 -0.11; 
   2  Level shift: doubly occupied orbital energies shifted by -1.00D-01
 -----------------------------------------------------------------------------

   Ex-sr + Ec-sr                         -0.6636268125
 + EJsr = sr Coulomb energy              46.2546936037
 = Total E(srDFT)                        45.5910667913


 Corrections needed for correct CI energy evaluation:
 - 0.5 Tr(Vxc-sr Dcore)                   0.3714903407
 -     Tr(Vxc-sr Dval)                    0.0000000000
 - 0.5 Tr( (Jsr+HFXFAC*Ksr) Dval )        0.0000000000
   3  Screening settings (-IFTHRS, JTDIIS, DIFDEN, times)   -6    3    F  4.14D-02  4.20D-02
@  3    -67.2354805326        4.57240D-01   -2.13D-02    3
      Virial theorem: -V/T =      1.896724
@    MULPOP   O      -0.33; H1  _1  0.16; H1  _2  0.16; 
   3  Level shift: doubly occupied orbital energies shifted by -1.00D-01
 -----------------------------------------------------------------------------

   Ex-sr + Ec-sr                         -0.6614181810
 + EJsr = sr Coulomb energy              45.6977589901
 = Total E(srDFT)                        45.0363408092


 Corrections needed for correct CI energy evaluation:
 - 0.5 Tr(Vxc-sr Dcore)                   0.3703274898
 -     Tr(Vxc-sr Dval)                    0.0000000000
 - 0.5 Tr( (Jsr+HFXFAC*Ksr) Dval )        0.0000000000
   4  Screening settings (-IFTHRS, JTDIIS, DIFDEN, times)   -6    4    F  4.14D-02  4.20D-02
@  4    -67.2486955984        4.42619D-02   -1.32D-02    3
      Virial theorem: -V/T =      1.901176
@    MULPOP   O      -0.14; H1  _1  0.07; H1  _2  0.07; 
   4  Level shift: doubly occupied orbital energies shifted by -2.50D-02
 -----------------------------------------------------------------------------

   Ex-sr + Ec-sr                         -0.6611873044
 + EJsr = sr Coulomb energy              45.6372757856
 = Total E(srDFT)                        44.9760884812


 Corrections needed for correct CI energy evaluation:
 - 0.5 Tr(Vxc-sr Dcore)                   0.3702058721
 -     Tr(Vxc-sr Dval)                    0.0000000000
 - 0.5 Tr( (Jsr+HFXFAC*Ksr) Dval )        0.0000000000
   5  Screening settings (-IFTHRS, JTDIIS, DIFDEN, times)   -7    5    F  4.11D-02  4.20D-02
@  5    -67.2488227168        1.07843D-03   -1.27D-04    3
      Virial theorem: -V/T =      1.901544
@    MULPOP   O      -0.12; H1  _1  0.06; H1  _2  0.06; 
 -----------------------------------------------------------------------------

   Ex-sr + Ec-sr                         -0.6611923343
 + EJsr = sr Coulomb energy              45.6386315722
 = Total E(srDFT)                        44.9774392379


 Corrections needed for correct CI energy evaluation:
 - 0.5 Tr(Vxc-sr Dcore)                   0.3702085221
 -     Tr(Vxc-sr Dval)                    0.0000000000
 - 0.5 Tr( (Jsr+HFXFAC*Ksr) Dval )        0.0000000000
   6  Screening settings (-IFTHRS, JTDIIS, DIFDEN, times)   -8    6    F  4.12D-02  4.10D-02
@  6    -67.2488227960        3.55581D-05   -7.92D-08    3

@ *** DIIS converged in   6 iterations !
@     Converged SCF energy, gradient:    -67.248822796037    3.56D-05
    - total time used in SIRFCK :              0.00 seconds

 --- Writing SIRIFC interface file

 CPU and wall time for SCF :       0.274       0.278


WARNING - DFT spin density is not implemented in MP2 module and is ignored.


 ----- Output from SIRIUS MP2 module -----

 Reference: H.J.Aa.Jensen, P.Jørgensen, H.Ågren, and J.Olsen,
            J. Chem. Phys. 88, 3834 (1988); 89, 5354 (1988)

 Checking that the closed shell orbitals are canonical Hartree-Fock orbitals

    Number of electrons  :   10
    Closed shell orbitals:    3    1    1    0

 Generating Fock matrix

   Ex-sr + Ec-sr                         -0.6611923343
 + EJsr = sr Coulomb energy              45.6386315722
 = Total E(srDFT)                        44.9774392379


 Corrections needed for correct CI energy evaluation:
 - 0.5 Tr(Vxc-sr Dcore)                   0.3702085221
 -     Tr(Vxc-sr Dval)                    0.0000000000
 - 0.5 Tr( (Jsr+HFXFAC*Ksr) Dval )        0.0000000000

 Hartree-Fock electronic energy:         -76.303827321675
 Hartree-Fock total      energy:         -67.248822796037

 Hartree-Fock orbital energies, symmetry 1 ( A1 ),    3 occupied SCF orbitals

       -15.84662649    -0.32136160     0.34260472     0.80695054

 Hartree-Fock orbital energies, symmetry 2 ( B1 ),    1 occupied SCF orbitals

         0.40252302

 Hartree-Fock orbital energies, symmetry 3 ( B2 ),    1 occupied SCF orbitals

         0.05090402     0.88634315

    E(LUMO) :     0.80695054   (in symmetry 1)
  - E(HOMO) :     0.40252302   (in symmetry 2)
  --------------------------
    gap     :     0.40442753

---> (Re)generating AOTWOINT
---> and (re)generating AOSR2INT


     ************************************************************************
     ************************** Output from HERINT **************************
     ************************************************************************


 Threshold for neglecting two-electron integrals:  1.00D-12
 HERMIT - Number of two-electron integrals written:          78 ( 19.2% )
 HERMIT - Megabytes written:                              0.007


 Threshold for neglecting two-electron integrals:  1.00D-12
 HERMIT - Number of two-electron integrals written:         138 ( 34.0% )
 HERMIT - Megabytes written:                              0.007


 2-el. integral transformation level 5: Total CPU and WALL times (sec)       0.003       0.007

 MP2 move   0.000000 electrons to unoccupied HF orbitals


@   Short-range Hartree-Fock total energy        :           -67.2488227960
@   + MP2 contribution from long-range integrals :             0.0000000000
@   = short-range MP2 second order energy        :           -67.2488227960

 *******************************************************
 MP2-SRDFT natural orbitals: Short-range self-consistent
 contributions are NOT taken into account.
 *******************************************************

 Natural orbital occupation numbers, symmetry 1 (irrep A1 )
 Sum =     6.00000000; RHF =     6.00000000; Difference =     0.00000000

         2.00000000     2.00000000     2.00000000     0.00000000

 Natural orbital occupation numbers, symmetry 2 (irrep B1 )
 Sum =     2.00000000; RHF =     2.00000000; Difference =     0.00000000

         2.00000000

 Natural orbital occupation numbers, symmetry 3 (irrep B2 )
 Sum =     2.00000000; RHF =     2.00000000; Difference =     0.00000000

         2.00000000     0.00000000

 Time used for MP2 natural orbitals :       0.045 CPU seconds,       0.050 wall seconds.

 CPU and wall time for MP2 :       0.045       0.050


        SIRIUS MC-srDFT optimization (SIROPT)
 ================================================


 Fock matrix screening setting for SIRCNO: IFTHRS =    9

   --- OUTPUT FROM SIRCNO     Keyword = FD+NO 


   Ex-sr + Ec-sr                         -0.6573732265
 + EJsr = sr Coulomb energy              44.5865408178
 = Total E(srDFT)                        43.9291675914


 Corrections needed for correct CI energy evaluation:
 - 0.5 Tr(Vxc-sr Dcore)                   0.2391330908
 -     Tr(Vxc-sr Dval)                    0.2580853091
 - 0.5 Tr( (Jsr+HFXFAC*Ksr) Dval )      -13.3475532098

 Occupations of CAS natural orbitals:

 Symmetry  1 ( irrep A1  in C2v )

   1.000000000

 Symmetry  2 ( irrep B1  in C2v )

   1.000000000

 Symmetry  3 ( irrep B2  in C2v )

   2.000000000   0.000000000


 --- MACRO ITERATION  1 ---
 --------------------------

 2-el. integral transformation level 3: Total CPU and WALL times (sec)       0.001       0.003

 Fock matrix screening setting for this macro iteration: 10^( -9)

   Ex-sr + Ec-sr                         -0.6437141610
 + EJsr = sr Coulomb energy              44.5865408178
 = Total E(srDFT)                        43.9428266568


 Corrections needed for correct CI energy evaluation:
 - 0.5 Tr(Vxc-sr Dcore)                   0.2419919064
 -     Tr(Vxc-sr Dval)                    0.2656653747
 - 0.5 Tr( (Jsr+HFXFAC*Ksr) Dval )      -13.3475532098

 Total MC-srDFT energy    :           -66.709232258031520  (MACRO    1)

 - Nuclear repulsion      :             9.055004525637894
 - Inactive energy        :           -63.408724791411977
 - Active energy          :             1.128098097464642
 - srDFT effective energy :           -13.483610089722086

 Norm of total gradient   :             0.365088123508
 -    of CI gradient      :             0.340096035303
 -    of orbital gradient :             0.132755507223
      Virial theorem: -V/T =      1.882154
@    MULPOP   O       0.44; H1  _1 -0.22; H1  _2 -0.22; 

 Residual norm when dim(red L) =   4
 NEO root     CSF        orbital          total
    1     0.00294363     0.00595513     0.00664293 converged

 (NEONEX) NEO vector is converged.

   --- OUTPUT FROM SIRCNO     Keyword = FD+NO 


   Ex-sr + Ec-sr                         -0.6596667778
 + EJsr = sr Coulomb energy              45.2344281439
 = Total E(srDFT)                        44.5747613661


 Corrections needed for correct CI energy evaluation:
 - 0.5 Tr(Vxc-sr Dcore)                   0.2395926905
 -     Tr(Vxc-sr Dval)                    0.2595778054
 - 0.5 Tr( (Jsr+HFXFAC*Ksr) Dval )      -13.6681873380

 Occupations of CAS natural orbitals:

 Symmetry  1 ( irrep A1  in C2v )

   1.000000000

 Symmetry  2 ( irrep B1  in C2v )

   1.000000000

 Symmetry  3 ( irrep B2  in C2v )

   1.999941610   0.000058390


 --- MACRO ITERATION  2 ---
 --------------------------

 2-el. integral transformation level 3: Total CPU and WALL times (sec)       0.001       0.003

 Fock matrix screening setting for this macro iteration: 10^( -9)

   Ex-sr + Ec-sr                         -0.6460794021
 + EJsr = sr Coulomb energy              45.2344281439
 = Total E(srDFT)                        44.5883487418


 Corrections needed for correct CI energy evaluation:
 - 0.5 Tr(Vxc-sr Dcore)                   0.2424002955
 -     Tr(Vxc-sr Dval)                    0.2671157509
 - 0.5 Tr( (Jsr+HFXFAC*Ksr) Dval )      -13.6681873380

 Total MC-srDFT energy    :           -66.730165697590380  (MACRO    2)

 - Nuclear repulsion      :             9.055004525637894
 - Inactive energy        :           -63.239503829130527
 - Active energy          :             1.259084299551223
 - srDFT effective energy :           -13.804750693648966

 Norm of total gradient   :             0.022593749905
 -    of CI gradient      :             0.021732652648
 -    of orbital gradient :             0.006178134316
      Virial theorem: -V/T =      1.877813
@    MULPOP   O       0.22; H1  _1 -0.11; H1  _2 -0.11; 

 Residual norm when dim(red L) =   6
 NEO root     CSF        orbital          total
    1     0.00000762     0.00001943     0.00002087 converged

 (NEONEX) NEO vector is converged.

   --- OUTPUT FROM SIRCNO     Keyword = FD+NO 


   Ex-sr + Ec-sr                         -0.6596005134
 + EJsr = sr Coulomb energy              45.2159668945
 = Total E(srDFT)                        44.5563663811


 Corrections needed for correct CI energy evaluation:
 - 0.5 Tr(Vxc-sr Dcore)                   0.2395991114
 -     Tr(Vxc-sr Dval)                    0.2594952784
 - 0.5 Tr( (Jsr+HFXFAC*Ksr) Dval )      -13.6539654765

 Occupations of CAS natural orbitals:

 Symmetry  1 ( irrep A1  in C2v )

   1.000000000

 Symmetry  2 ( irrep B1  in C2v )

   1.000000000

 Symmetry  3 ( irrep B2  in C2v )

   1.999998084   0.000001916


 --- MACRO ITERATION  3 ---
 --------------------------

 2-el. integral transformation level 3: Total CPU and WALL times (sec)       0.001       0.002

 Fock matrix screening setting for this macro iteration: 10^( -9)

   Ex-sr + Ec-sr                         -0.6460168264
 + EJsr = sr Coulomb energy              45.2159668945
 = Total E(srDFT)                        44.5699500681


 Corrections needed for correct CI energy evaluation:
 - 0.5 Tr(Vxc-sr Dcore)                   0.2424059411
 -     Tr(Vxc-sr Dval)                    0.2670326340
 - 0.5 Tr( (Jsr+HFXFAC*Ksr) Dval )      -13.6539654765

 Total MC-srDFT energy    :           -66.730243977847365  (MACRO    3)

 - Nuclear repulsion      :             9.055004525637894
 - Inactive energy        :           -63.249250305072856
 - Active energy          :             1.254545529492106
 - srDFT effective energy :           -13.790543727904511

 Norm of total gradient   :             0.000058813695
 -    of CI gradient      :             0.000054934914
 -    of orbital gradient :             0.000021004903
      Virial theorem: -V/T =      1.877949
@    MULPOP   O       0.22; H1  _1 -0.11; H1  _2 -0.11; 

 Residual norm when dim(red L) =   4
 NEO root     CSF        orbital          total
    1     0.00000526     0.00000053     0.00000529 converged

 (NEONEX) NEO vector is converged.

   --- OUTPUT FROM SIRCNO     Keyword = FD+NO 


   Ex-sr + Ec-sr                         -0.6596001973
 + EJsr = sr Coulomb energy              45.2158774324
 = Total E(srDFT)                        44.5562772351


 Corrections needed for correct CI energy evaluation:
 - 0.5 Tr(Vxc-sr Dcore)                   0.2395990850
 -     Tr(Vxc-sr Dval)                    0.2594949987
 - 0.5 Tr( (Jsr+HFXFAC*Ksr) Dval )      -13.6539124654

 Occupations of CAS natural orbitals:

 Symmetry  1 ( irrep A1  in C2v )

   1.000000000

 Symmetry  2 ( irrep B1  in C2v )

   1.000000000

 Symmetry  3 ( irrep B2  in C2v )

   1.999998085   0.000001915


 --- MACRO ITERATION  4 ---
 --------------------------

 2-el. integral transformation level 3: Total CPU and WALL times (sec)       0.001       0.003

 Fock matrix screening setting for this macro iteration: 10^( -9)

   Ex-sr + Ec-sr                         -0.6460165327
 + EJsr = sr Coulomb energy              45.2158774324
 = Total E(srDFT)                        44.5698608997


 Corrections needed for correct CI energy evaluation:
 - 0.5 Tr(Vxc-sr Dcore)                   0.2424059173
 -     Tr(Vxc-sr Dval)                    0.2670323253
 - 0.5 Tr( (Jsr+HFXFAC*Ksr) Dval )      -13.6539124654

 Total MC-srDFT energy    :           -66.730243978390519  (MACRO    4)

 - Nuclear repulsion      :             9.055004525637894
 - Inactive energy        :           -63.249282319013091
 - Active energy          :             1.254524570541019
 - srDFT effective energy :           -13.790490755556345

 Norm of total gradient   :             0.000005285902
 -    of CI gradient      :             0.000005258943
 -    of orbital gradient :             0.000000533181
      Virial theorem: -V/T =      1.877949
@    MULPOP   O       0.22; H1  _1 -0.11; H1  _2 -0.11; 

 (SIRSTP) Energy difference;
 actual, predicted and ratio:  -0.000000000543153  -0.000000000543111    1.000077
 Close to convergence, ratio set to one.

 *** Optimization control: MC-srDFT converged ***
     Number of macro iterations used            4
     Number of micro iterations used           11
     Total number of CPU seconds used         1.20

 CPU and wall time for MCSCF :       1.202       1.256


                     .----------------------------------------.
                     | --- SIRIUS OPTIMIZATION STATISTICS --- |
                     `----------------------------------------'


 
     Date and time (Linux)  : Mon Mar 25 16:50:49 2019
     Host name              : fe1.deic.sdu.dk                         


  ITER ITMIC     EMCSCF           GRDNRM        RATIO      STPLNG
 ---------------------------------------------------------------------
    1    3    -66.709232258032   0.3650881235  0.000000   0.1212765659
    2    5    -66.730165697590   0.0225937499  0.971533   0.0073507076
    3    3    -66.730243977847   0.0000588137  1.001264   0.0000194179
    4    0    -66.730243978391   0.0000052859  1.000000   0.0000000000


  ITER  INDGCM  GCIMAX      GCINRM     INDGOM  GOBMAX      GOBNRM      GRDNRM
 ------------------------------------------------------------------------------
    1      3    0.276954    0.340096      2    0.099364    0.132756    0.365088
    2      2    0.017896    0.021733      1   -0.005617    0.006178    0.022594
    3      3   -0.000041    0.000055      1   -0.000015    0.000021    0.000059
    4      5    0.000005    0.000005      1   -0.000000    0.000001    0.000005


  ITER ITMIC NCLIN NOLIN   TIMMAC    TIMITR    TIMMIC    TIMLIN    TIMMIC/ITMIC
 ------------------------------------------------------------------------------

    1     3     2     1      0.34      0.00      0.27      0.23      0.09
    2     5     3     2      0.43      0.00      0.38      0.34      0.08
    3     3     2     1      0.34      0.00      0.29      0.25      0.10
    4     0     0     0      0.05      0.00      0.00      0.00


 ITER         EMY                 EACTIV              EMCSCF

    1    -76.892334881134      1.128098097465    -66.709232258032
    2    -77.044254522779      1.259084299551    -66.730165697590
    3    -77.039794032977      1.254545529492    -66.730243977847
    4    -77.039773074569      1.254524570541    -66.730243978391


 ITER         DEPRED              DEACT               RATIO

    1      0.000000000000      0.000000000000      0.000000000000
    2     -0.021546807155     -0.020933439559      0.971533248894
    3     -0.000078181462     -0.000078280257      1.001263657079
    4     -0.000000000543     -0.000000000543      1.000000000000


 ITER    BETA           GAMMA             STPLNG              RTRUST

    1      0.20000000  1.00000000      0.121276565898      0.700000000000
    2      0.20000000  1.00000000      0.007350707605      0.700000000000
    3      0.20000000  1.00000000      0.000019417877      0.700000000000
    4      0.00000000  0.00000000      0.000000000000      0.700000000000


 Reduced L root no.  1
 ITER         EVAL              EVEC(1)           EVEC(2)           EVEC(3)
 ----------------------------------------------------------------------------
    1   -0.001722731055    0.999705969623   -0.023688757590   -0.004533328099
    2   -0.000006254503    0.999998919344   -0.000908644213   -0.000357330669
    3   -0.000000000043    0.999999999992   -0.000003702548   -0.000001104814
    4    0.000000000000    0.000000000000    0.000000000000    0.000000000000


                       .-----------------------------------.
                       | --- Final results from SIRIUS --- |
                       `-----------------------------------'


@    Spin multiplicity:           3
@    Spatial symmetry:            2 ( irrep  B1  in C2v )
@    Total charge of molecule:    0
@    State number:                1

@    Final MC-SRDFT energy:       -66.730243978391                 
@    Nuclear repulsion:             9.055004525638
@    Electronic energy:           -75.785248504028

@    Final gradient norm:           0.000005285902

 
     Date and time (Linux)  : Mon Mar 25 16:50:49 2019
     Host name              : fe1.deic.sdu.dk                         

 Occupancies of natural orbitals
 -------------------------------

 Symmetry 1  ( A1 ) -- Total occupation in this symmetry is   7.000000000

   2.000000000   2.000000000   2.000000000   1.000000000

 Symmetry 2  ( B1 ) -- Total occupation in this symmetry is   1.000000000

   1.000000000

 Symmetry 3  ( B2 ) -- Total occupation in this symmetry is   2.000000000

   1.999998085   0.000001915

 Symmetry 4  ( A2 ) -- No occupied orbitals

File label for MO orbitals:  25Mar19   (CNOORB)

 (Only coefficients > 0.0100 are printed.)

 Molecular orbitals for symmetry species 1  (A1 )
 ------------------------------------------------

    Orbital         1        2        3        4
   1 O   :1s     0.9819  -0.2276   0.1112   0.1588
   2 O   :1s     0.0864   0.7367  -0.5172  -0.9672
   3 O   :2pz    0.0127   0.1095   0.8020  -0.7492
   4 H1  :1s    -0.0230   0.2299   0.2234   0.8185

 Molecular orbitals for symmetry species 2  (B1 )
 ------------------------------------------------

    Orbital         1
   1 O   :2px    1.0000

 Molecular orbitals for symmetry species 3  (B2 )
 ------------------------------------------------

    Orbital         1        2
   1 O   :2py    0.6467  -1.0083
   2 H1  :1s     0.3912   0.8819

 Printout of CI-coefficients abs greater than 0.05000 for root  1
 *** NOTE: this root is the reference state ***

 Printout of coefficients in interval  3.1623E-01 to  1.0000E+00
 ===============================================================

  Coefficient of CSF no.         1 is      0.99999904    9.99999043E-01
  Orbital          3   1   2
  Spin coupling    2   1   1

 Printout of coefficients in interval  1.0000E-01 to  3.1623E-01
 ===============================================================
   ( no coefficients )

 Printout of coefficients in interval  5.0000E-02 to  1.0000E-01
 ===============================================================
   ( no coefficients )

 Norm of printed CI vector ..      0.99999809

 Magnitude of CI coefficients
 ============================
 ( Ranges are relative to norm of vector :  1.00E+00 )

  10- 1 to 10- 0         1    0.99999809E+00      0.9999980850
  10- 3 to 10- 2         1    0.12766400E-05      0.9999993617
  10- 4 to 10- 3         1    0.63831999E-06      1.0000000000
  10- 6 to 10- 5         1    0.13681674E-11      1.0000000000
  10- 7 to 10- 6         1    0.91506188E-13      1.0000000000
  Number of coefficients less than 10^-11 times norm is            0

  Total CPU  time used in SIRIUS :   1.53 seconds
  Total wall time used in SIRIUS :   1.60 seconds

 
     Date and time (Linux)  : Mon Mar 25 16:50:49 2019
     Host name              : fe1.deic.sdu.dk                         

 NOTE:    1 informational messages have been issued.
 Check output, result, and error files for "INFO".

 NOTE:    1 warnings have been issued.
 Check output, result, and error files for "WARNING".


                     .---------------------------------------.
                     | End of Wave Function Section (SIRIUS) |
                     `---------------------------------------'

  Total CPU  time used in DALTON:   1.56 seconds
  Total wall time used in DALTON:   1.74 seconds

 
     Date and time (Linux)  : Mon Mar 25 16:50:49 2019
     Host name              : fe1.deic.sdu.dk                         
