

     ************************************************************************
     *************** Dalton - An Electronic Structure Program ***************
     ************************************************************************

    This is output from DALTON release Dalton2017.alpha (2017)
         ( Web site: http://daltonprogram.org )

   ----------------------------------------------------------------------------

    NOTE:
     
    Dalton is an experimental code for the evaluation of molecular
    properties using (MC)SCF, DFT, CI, and CC wave functions.
    The authors accept no responsibility for the performance of
    the code or for the correctness of the results.
     
    The code (in whole or part) is provided under a licence and
    is not to be reproduced for further distribution without
    the written permission of the authors or their representatives.
     
    See the home page "http://daltonprogram.org" for further information.
     
    If results obtained with this code are published,
    the appropriate citations would be both of:
     
       K. Aidas, C. Angeli, K. L. Bak, V. Bakken, R. Bast,
       L. Boman, O. Christiansen, R. Cimiraglia, S. Coriani,
       P. Dahle, E. K. Dalskov, U. Ekstroem,
       T. Enevoldsen, J. J. Eriksen, P. Ettenhuber, B. Fernandez,
       L. Ferrighi, H. Fliegl, L. Frediani, K. Hald, A. Halkier,
       C. Haettig, H. Heiberg, T. Helgaker, A. C. Hennum,
       H. Hettema, E. Hjertenaes, S. Hoest, I.-M. Hoeyvik,
       M. F. Iozzi, B. Jansik, H. J. Aa. Jensen, D. Jonsson,
       P. Joergensen, J. Kauczor, S. Kirpekar,
       T. Kjaergaard, W. Klopper, S. Knecht, R. Kobayashi, H. Koch,
       J. Kongsted, A. Krapp, K. Kristensen, A. Ligabue,
       O. B. Lutnaes, J. I. Melo, K. V. Mikkelsen, R. H. Myhre,
       C. Neiss, C. B. Nielsen, P. Norman, J. Olsen,
       J. M. H. Olsen, A. Osted, M. J. Packer, F. Pawlowski,
       T. B. Pedersen, P. F. Provasi, S. Reine, Z. Rinkevicius,
       T. A. Ruden, K. Ruud, V. Rybkin, P. Salek, C. C. M. Samson,
       A. Sanchez de Meras, T. Saue, S. P. A. Sauer,
       B. Schimmelpfennig, K. Sneskov, A. H. Steindal,
       K. O. Sylvester-Hvid, P. R. Taylor, A. M. Teale,
       E. I. Tellgren, D. P. Tew, A. J. Thorvaldsen, L. Thoegersen,
       O. Vahtras, M. A. Watson, D. J. D. Wilson, M. Ziolkowski
       and H. Agren,
       "The Dalton quantum chemistry program system",
       WIREs Comput. Mol. Sci. 2014, 4:269–284 (doi: 10.1002/wcms.1172)
     
    and
     
       Dalton, a Molecular Electronic Structure Program,
       Release Dalton2017.alpha (2017), see http://daltonprogram.org
   ----------------------------------------------------------------------------

    Authors in alphabetical order (major contribution(s) in parenthesis):

  Kestutis Aidas,           Vilnius University,           Lithuania   (QM/MM)
  Celestino Angeli,         University of Ferrara,        Italy       (NEVPT2)
  Keld L. Bak,              UNI-C,                        Denmark     (AOSOPPA, non-adiabatic coupling, magnetic properties)
  Vebjoern Bakken,          University of Oslo,           Norway      (DALTON; geometry optimizer, symmetry detection)
  Radovan Bast,             UiT The Arctic U. of Norway,  Norway      (DALTON installation and execution frameworks)
  Pablo Baudin,             University of Valencia,       Spain       (Cholesky excitation energies)
  Linus Boman,              NTNU,                         Norway      (Cholesky decomposition and subsystems)
  Ove Christiansen,         Aarhus University,            Denmark     (CC module)
  Renzo Cimiraglia,         University of Ferrara,        Italy       (NEVPT2)
  Sonia Coriani,            University of Trieste,        Italy       (CC module, MCD in RESPONS)
  Janusz Cukras,            University of Trieste,        Italy       (MChD in RESPONS)
  Paal Dahle,               University of Oslo,           Norway      (Parallelization)
  Erik K. Dalskov,          UNI-C,                        Denmark     (SOPPA)
  Thomas Enevoldsen,        Univ. of Southern Denmark,    Denmark     (SOPPA)
  Janus J. Eriksen,         Aarhus University,            Denmark     (Polarizable embedding model, TDA)
  Rasmus Faber,             University of Copenhagen,     Denmark     (Vib.avg. NMR with SOPPA, parallel AO-SOPPA)
  Berta Fernandez,          U. of Santiago de Compostela, Spain       (doublet spin, ESR in RESPONS)
  Lara Ferrighi,            Aarhus University,            Denmark     (PCM Cubic response)
  Heike Fliegl,             University of Oslo,           Norway      (CCSD(R12))
  Luca Frediani,            UiT The Arctic U. of Norway,  Norway      (PCM)
  Bin Gao,                  UiT The Arctic U. of Norway,  Norway      (Gen1Int library)
  Christof Haettig,         Ruhr-University Bochum,       Germany     (CC module)
  Kasper Hald,              Aarhus University,            Denmark     (CC module)
  Asger Halkier,            Aarhus University,            Denmark     (CC module)
  Frederik Beyer Hansen,    University of Copenhagen,     Denmark     (Parallel AO-SOPPA)
  Erik D. Hedegaard,        Univ. of Southern Denmark,    Denmark     (Polarizable embedding model, QM/MM)
  Hanne Heiberg,            University of Oslo,           Norway      (geometry analysis, selected one-electron integrals)
  Trygve Helgaker,          University of Oslo,           Norway      (DALTON; ABACUS, ERI, DFT modules, London, and much more)
  Alf Christian Hennum,     University of Oslo,           Norway      (Parity violation)
  Hinne Hettema,            University of Auckland,       New Zealand (quadratic response in RESPONS; SIRIUS supersymmetry)
  Eirik Hjertenaes,         NTNU,                         Norway      (Cholesky decomposition)
  Pi A. B. Haase,           University of Copenhagen,     Denmark     (Triplet AO-SOPPA)
  Maria Francesca Iozzi,    University of Oslo,           Norway      (RPA)
  Brano Jansik              Technical Univ. of Ostrava    Czech Rep.  (DFT cubic response)
  Hans Joergen Aa. Jensen,  Univ. of Southern Denmark,    Denmark     (DALTON; SIRIUS, RESPONS, ABACUS modules, London, and much more)
  Dan Jonsson,              UiT The Arctic U. of Norway,  Norway      (cubic response in RESPONS module)
  Poul Joergensen,          Aarhus University,            Denmark     (RESPONS, ABACUS, and CC modules)
  Maciej Kaminski,          University of Warsaw,         Poland      (CPPh in RESPONS)
  Joanna Kauczor,           Linkoeping University,        Sweden      (Complex polarization propagator (CPP) module)
  Sheela Kirpekar,          Univ. of Southern Denmark,    Denmark     (Mass-velocity & Darwin integrals)
  Wim Klopper,              KIT Karlsruhe,                Germany     (R12 code in CC, SIRIUS, and ABACUS modules)
  Stefan Knecht,            ETH Zurich,                   Switzerland (Parallel CI and MCSCF)
  Rika Kobayashi,           Australian National Univ.,    Australia   (DIIS in CC, London in MCSCF)
  Henrik Koch,              NTNU,                         Norway      (CC module, Cholesky decomposition)
  Jacob Kongsted,           Univ. of Southern Denmark,    Denmark     (Polarizable embedding model, QM/MM)
  Andrea Ligabue,           University of Modena,         Italy       (CTOCD, AOSOPPA)
  Nanna H. List             Univ. of Southern Denmark,    Denmark     (Polarizable embedding model)
  Ola B. Lutnaes,           University of Oslo,           Norway      (DFT Hessian)
  Juan I. Melo,             University of Buenos Aires,   Argentina   (LRESC, Relativistic Effects on NMR Shieldings)
  Kurt V. Mikkelsen,        University of Copenhagen,     Denmark     (MC-SCRF and QM/MM)
  Rolf H. Myhre,            NTNU,                         Norway      (Cholesky, subsystems and ECC2)
  Christian Neiss,          Univ. Erlangen-Nuernberg,     Germany     (CCSD(R12))
  Christian B. Nielsen,     University of Copenhagen,     Denmark     (QM/MM)
  Patrick Norman,           Linkoeping University,        Sweden      (Cubic response and complex frequency response in RESPONS)
  Jeppe Olsen,              Aarhus University,            Denmark     (SIRIUS CI/density modules)
  Jogvan Magnus H. Olsen,   Univ. of Southern Denmark,    Denmark     (Polarizable embedding model, QM/MM)
  Anders Osted,             Copenhagen University,        Denmark     (QM/MM)
  Martin J. Packer,         University of Sheffield,      UK          (SOPPA)
  Filip Pawlowski,          Kazimierz Wielki University,  Poland      (CC3)
  Morten N. Pedersen,       Univ. of Southern Denmark,    Denmark     (Polarizable embedding model)
  Thomas B. Pedersen,       University of Oslo,           Norway      (Cholesky decomposition)
  Patricio F. Provasi,      University of Northeastern,   Argentina   (Analysis of coupling constants in localized orbitals)
  Zilvinas Rinkevicius,     KTH Stockholm,                Sweden      (open-shell DFT, ESR)
  Elias Rudberg,            KTH Stockholm,                Sweden      (DFT grid and basis info)
  Torgeir A. Ruden,         University of Oslo,           Norway      (Numerical derivatives in ABACUS)
  Kenneth Ruud,             UiT The Arctic U. of Norway,  Norway      (DALTON; ABACUS magnetic properties and much more)
  Pawel Salek,              KTH Stockholm,                Sweden      (DALTON; DFT code)
  Claire C. M. Samson       University of Karlsruhe       Germany     (Boys localization, r12 integrals in ERI)
  Alfredo Sanchez de Meras, University of Valencia,       Spain       (CC module, Cholesky decomposition)
  Trond Saue,               Paul Sabatier University,     France      (direct Fock matrix construction)
  Stephan P. A. Sauer,      University of Copenhagen,     Denmark     (SOPPA(CCSD), SOPPA prop., AOSOPPA, vibrational g-factors)
  Bernd Schimmelpfennig,    Forschungszentrum Karlsruhe,  Germany     (AMFI module)
  Kristian Sneskov,         Aarhus University,            Denmark     (Polarizable embedding model, QM/MM)
  Arnfinn H. Steindal,      UiT The Arctic U. of Norway,  Norway      (parallel QM/MM, Polarizable embedding model)
  Casper Steinmann,         Univ. of Southern Denmark,    Denmark     (QFIT, Polarizable embedding model)
  K. O. Sylvester-Hvid,     University of Copenhagen,     Denmark     (MC-SCRF)
  Peter R. Taylor,          VLSCI/Univ. of Melbourne,     Australia   (Symmetry handling ABACUS, integral transformation)
  Andrew M. Teale,          University of Nottingham,     England     (DFT-AC, DFT-D)
  David P. Tew,             University of Bristol,        England     (CCSD(R12))
  Olav Vahtras,             KTH Stockholm,                Sweden      (triplet response, spin-orbit, ESR, TDDFT, open-shell DFT)
  David J. Wilson,          La Trobe University,          Australia   (DFT Hessian and DFT magnetizabilities)
  Hans Agren,               KTH Stockholm,                Sweden      (SIRIUS module, RESPONS, MC-SCRF solvation model)
 --------------------------------------------------------------------------------

     Date and time (Linux)  : Sun Mar 11 23:23:32 2018
     Host name              : foeroyar                                

 * Work memory size             :    64000000 =  488.28 megabytes.

 * Directories for basis set searches:
   1) /home/magnus/Projects/dalton_devel/dalton-foeroyingur/build/test/pehf_geoopt
   2) /home/magnus/Projects/dalton_devel/dalton-foeroyingur/build/basis


Compilation information
-----------------------

 Who compiled             | magnus
 Host                     | foeroyar
 System                   | Linux-4.15.6-300.fc27.x86_64
 CMake generator          | Unix Makefiles
 Processor                | x86_64
 64-bit integers          | OFF
 MPI                      | OFF
 Fortran compiler         | /usr/bin/gfortran
 Fortran compiler version | GNU Fortran (GCC) 7.3.1 20180303 (Red Hat 7.3.1-5)
 C compiler               | /usr/bin/gcc
 C compiler version       | gcc (GCC) 7.3.1 20180303 (Red Hat 7.3.1-5)
 C++ compiler             | /usr/bin/g++
 C++ compiler version     | g++ (GCC) 7.3.1 20180303 (Red Hat 7.3.1-5)
 BLAS                     | /home/magnus/Programs/intel/compilers_and_librarie
                          | s_2018.1.163/linux/mkl/lib/intel64/libmkl_gf_lp64.
                          | so;/home/magnus/Programs/intel/compilers_and_libra
                          | ries_2018.1.163/linux/mkl/lib/intel64/libmkl_seque
                          | ntial.so;/home/magnus/Programs/intel/compilers_and
                          | _libraries_2018.1.163/linux/mkl/lib/intel64/libmkl
                          | _core.so;/usr/lib64/libpthread.so;/usr/lib64/libm.
                          | so
 LAPACK                   | /home/magnus/Programs/intel/compilers_and_librarie
                          | s_2018.1.163/linux/mkl/lib/intel64/libmkl_lapack95
                          | _lp64.a;/home/magnus/Programs/intel/compilers_and_
                          | libraries_2018.1.163/linux/mkl/lib/intel64/libmkl_
                          | gf_lp64.so
 Static linking           | OFF
 Last Git revision        | c26c19694269d0231f4416cb83b028f9456ffab8
 Git branch               | add-multipole-interaction
 Configuration time       | 2018-03-11 23:22:22.832814


   Content of the .dal input file
 ----------------------------------

**DALTON
.OPTIMIZE
.PEQM
*OPTIMIZE
.INITHE
.MAX IT
50
.CONDIT
3
.GRADIENT
1.0d-5
*PEQM
.ITERATIVE
1.0d-12
.LJ
3
1.76820000    0.15210000
0.00000000    0.00000000
0.00000000    0.00000000
**WAVE FUNCTIONS
.HF
*SCF INPUT
.THRESH
1.0d-6
**PROPERTIES
.VIBANA
**END OF


   Content of the .mol file
 ----------------------------

BASIS
STO-3G
Generated by PEAS 0.1.0
Some informative stuff...
AtomTypes=2 Charge=0 Angstrom NoSymmetry
Charge=8.0 Atoms=1
O   -0.065000    0.011000    0.000000
Charge=1.0 Atoms=2
H    0.574000    0.282000   -0.659000
H    0.451000   -0.462000    0.653000



       *******************************************************************
       *********** Output from DALTON general input processing ***********
       *******************************************************************

 --------------------------------------------------------------------------------
   Overall default print level:    0
   Print level for DALTON.STAT:    1

    "Old" integral transformation used (limited to max 255 basis functions)
    Environment is modeled using polarizable embedding scheme (PE library)
 --------------------------------------------------------------------------------


 Chosen parameters for *OPTIMI :
 -------------------------------

 Default 1st order method will be used:   BFGS update.
 Optimization will be performed in Cartesian coordinates.
 Initial Hessian will be calculated.

 Maximum # of iterations:        50

 Trust region method will be used to control step (default).

 Convergence threshold for gradient set to :      1.00D-05
 Convergence threshold for energy set to   :      1.00D-06
 Convergence threshold for step set to     :      1.00D-04
 Number of convergence criteria set to     :   3


              >>>>>>>>>>>>>>>>>>>>>>>>>>>>>>>>>>>>>>>>>>>>>>>>>>>>>
              >>>>>>>>>> 1st Order Geometry Optimization >>>>>>>>>>
              >>>>>>>>>>>>>>>>>>>>>>>>>>>>>>>>>>>>>>>>>>>>>>>>>>>>>


 Reading .mol file to determine number of atoms for parallel runs.

  Reading potential input file for polarizable embedding calculation

    .------------------------------------------------.
    | Information from polarizable embedding library |
    `------------------------------------------------´

      Number of classical sites:     42

      Multipole moments upto 2nd order.

      Dipole-dipole polarizabilities.

      Iterative solver for induced moments will be used
      with convergence threshold: 1.0E-12
      Total charge of classical region:    0.0000
 


   ****************************************************************************
   *************** Output of molecule and basis set information ***************
   ****************************************************************************


    The two title cards from your ".mol" input:
    ------------------------------------------------------------------------
 1: Generated by PEAS 0.1.0                                                 
 2: Some informative stuff...                                               
    ------------------------------------------------------------------------

  Coordinates are entered in Angstrom and converted to atomic units.
          - Conversion factor : 1 bohr = 0.52917721 A

  Atomic type no.    1
  --------------------
  Nuclear charge:   8.00000
  Number of symmetry independent centers:    1
  Number of basis sets to read;    2
  Basis set file used for this atomic type with Z =   8 :
     "/home/magnus/Projects/dalton_devel/dalton-foeroyingur/build/basis/STO-3G"

  Atomic type no.    2
  --------------------
  Nuclear charge:   1.00000
  Number of symmetry independent centers:    2
  Number of basis sets to read;    2
  Basis set file used for this atomic type with Z =   1 :
     "/home/magnus/Projects/dalton_devel/dalton-foeroyingur/build/basis/STO-3G"


                         SYMGRP: Point group information
                         -------------------------------

@    Point group: C1 


                                 Isotopic Masses
                                 ---------------

                           O          15.994915
                           H           1.007825
                           H           1.007825

                       Total mass:    18.010565 amu
                       Natural abundance:  99.730 %

 Center-of-mass coordinates (a.u.):   -0.000698   -0.000573   -0.000634


  Atoms and basis sets
  --------------------

  Number of atom types :    2
  Total number of atoms:    3

  Basis set used is "STO-3G" from the basis set library.

  label    atoms   charge   prim   cont     basis
  ----------------------------------------------------------------------
  O           1    8.0000    15     5      [6s3p|2s1p]                                        
  H           2    1.0000     3     1      [3s|1s]                                            
  ----------------------------------------------------------------------
  total:      3   10.0000    21     7
  ----------------------------------------------------------------------

  Threshold for neglecting AO integrals:  1.00D-12


  Cartesian Coordinates (a.u.)
  ----------------------------

  Total number of coordinates:    9
  O       :     1  x  -0.1228321981    2  y   0.0207869874    3  z   0.0000000000
  H       :     4  x   1.0847027957    5  y   0.5329027672    6  z  -1.2453295164
  H       :     7  x   0.8522664824    8  y  -0.8730534697    9  z   1.2339911596


   Interatomic separations (in Angstrom):
   --------------------------------------

            O           H           H     
            ------      ------      ------
 O     :    0.000000
 H     :    0.957101    0.000000
 H     :    0.957285    1.513278    0.000000


  Max    interatomic separation is    1.5133 Angstrom (    2.8597 Bohr)
  between atoms    3 and    2, "H     " and "H     ".

  Min HX interatomic separation is    0.9571 Angstrom (    1.8087 Bohr)


  Bond distances (Angstrom):
  --------------------------

                  atom 1     atom 2       distance
                  ------     ------       --------
  bond distance:  H          O            0.957101
  bond distance:  H          O            0.957285


  Bond angles (degrees):
  ----------------------

                  atom 1     atom 2     atom 3         angle
                  ------     ------     ------         -----
  bond angle:     H          O          H            104.460




 Principal moments of inertia (u*A**2) and principal axes
 --------------------------------------------------------

   IA       0.615276         -0.081058   -0.491687    0.866991
   IB       1.153964          0.985070   -0.172066   -0.005484
   IC       1.769240          0.151877    0.853602    0.498293


 Rotational constants
 --------------------

@    The molecule is planar.

               A                   B                   C

         821386.2833         437950.3289         285647.5302 MHz
           27.398497           14.608451            9.528176 cm-1


@  Nuclear repulsion energy :    9.195173291795 Hartree


                     .---------------------------------------.
                     | Starting in Integral Section (HERMIT) |
                     `---------------------------------------'



 ***************************************************************************************
 ****************** Output from **INTEGRALS input processing (HERMIT) ******************
 ***************************************************************************************


 - Using defaults, no **INTEGRALS input found

 Default print level:        1

 * Nuclear model: Point charge

 Calculation of one- and two-electron Hamiltonian integrals.

 Center of mass  (bohr):     -0.000697618623     -0.000573346010     -0.000634465348
 Operator center (bohr):      0.000000000000      0.000000000000      0.000000000000
 Gauge origin    (bohr):      0.000000000000      0.000000000000      0.000000000000
 Dipole origin   (bohr):      0.000000000000      0.000000000000      0.000000000000


     ************************************************************************
     ************************** Output from HERINT **************************
     ************************************************************************



                      Nuclear contribution to dipole moments
                      --------------------------------------

                 au               Debye          C m (/(10**-30)

      x      0.95431169         2.42561822         8.09099148
      y     -0.17385480        -0.44189480        -1.47400241
      z     -0.01133836        -0.02881923        -0.09613059



 Threshold for neglecting two-electron integrals:  1.00D-12
 HERMIT - Number of two-electron integrals written:         319 ( 78.6% )
 HERMIT - Megabytes written:                              0.007

  Total CPU  time used in HERMIT:   0.01 seconds
  Total wall time used in HERMIT:   0.01 seconds


                        .----------------------------------.
                        | End of Integral Section (HERMIT) |
                        `----------------------------------'



                   .--------------------------------------------.
                   | Starting in Wave Function Section (SIRIUS) |
                   `--------------------------------------------'


 *** Output from Huckel module :

     Using EWMO model:          T
     Using EHT  model:          F
     Number of Huckel orbitals each symmetry:    7

 EWMO - Energy Weighted Maximum Overlap - is a Huckel type method,
        which normally is better than Extended Huckel Theory.
 Reference: Linderberg and Ohrn, Propagators in Quantum Chemistry (Wiley, 1973)

 Huckel EWMO eigenvalues for symmetry :  1
          -20.684969      -1.611753      -0.778136      -0.688460      -0.616200
           -0.232245      -0.168138

 **********************************************************************
 *SIRIUS* a direct, restricted step, second order MCSCF program       *
 **********************************************************************

 
     Date and time (Linux)  : Sun Mar 11 23:23:32 2018
     Host name              : foeroyar                                

 Title lines from ".mol" input file:
     Generated by PEAS 0.1.0                                                 
     Some informative stuff...                                               

 Print level on unit LUPRI =   2 is   0
 Print level on unit LUW4  =   2 is   5

@    Restricted, closed shell Hartree-Fock calculation.

 Initial molecular orbitals are obtained according to
 ".MOSTART EWMO  " input option

@    QM part is embedded in an environment :

@         Model: PE

     Wave function specification
     ============================

     Wave function environment is modeled using the
     polarizable embedding model (PE library).

@    Wave function type        --- PE-HF ---
@    Number of closed shell electrons          10
@    Number of electrons in active shells       0
@    Total charge of the molecule               0

@    Spin multiplicity and 2 M_S                1         0
@    Total number of symmetries                 1 (point group: C1 )
@    Reference state symmetry                   1 (irrep name : A  )

     Orbital specifications
     ======================
@    Abelian symmetry species          All |    1
@                                          |  A  
                                       --- |  ---
@    Occupied SCF orbitals               5 |    5
@    Secondary orbitals                  2 |    2
@    Total number of orbitals            7 |    7
@    Number of basis functions           7 |    7

     Optimization information
     ========================
@    Number of configurations                 1
@    Number of orbital rotations             10
     ------------------------------------------
@    Total number of variables               11

     Maximum number of Fock   iterations      0
     Maximum number of DIIS   iterations     60
     Maximum number of QC-SCF iterations     60
     Threshold for SCF convergence     1.00D-06


 ***********************************************
 ***** DIIS acceleration of SCF iterations *****
 ***********************************************

 C1-DIIS algorithm; max error vectors =    8

 Iter      Total energy     Embedding energy      Error norm     Delta(E)
 -----------------------------------------------------------------------------

Calculating AOSUPINT
     (Precalculated AO two-electron integrals are transformed to P-supermatrix elements.
      Threshold for discarding integrals :  1.00D-12 )
@  1  -75.1110263058     -0.200249637395        7.12574D-01   -7.51D+01
      Virial theorem: -V/T =      2.006841
@    MULPOP   O      -0.45; H       0.23; H       0.23; 
   1  Level shift: doubly occupied orbital energies shifted by -2.00D-01
 -----------------------------------------------------------------------------
@  2  -75.1478116658     -0.194663101917        2.09284D-01   -3.68D-02
      Virial theorem: -V/T =      2.006717
@    MULPOP   O      -0.45; H       0.23; H       0.22; 
   2  Level shift: doubly occupied orbital energies shifted by -1.00D-01
 -----------------------------------------------------------------------------
@  3  -75.1520425085     -0.192134317653        3.06670D-02   -4.23D-03
      Virial theorem: -V/T =      2.006045
@    MULPOP   O      -0.45; H       0.23; H       0.22; 
   3  Level shift: doubly occupied orbital energies shifted by -2.50D-02
 -----------------------------------------------------------------------------
@  4  -75.1521324958     -0.191771062379        1.36630D-03   -9.00D-05
      Virial theorem: -V/T =      2.005890
@    MULPOP   O      -0.45; H       0.24; H       0.22; 
 -----------------------------------------------------------------------------
@  5  -75.1521328090     -0.191772094047        3.30258D-04   -3.13D-07
      Virial theorem: -V/T =      2.005893
@    MULPOP   O      -0.45; H       0.24; H       0.22; 
 -----------------------------------------------------------------------------
@  6  -75.1521328300     -0.191776018910        2.65995D-05   -2.10D-08
      Virial theorem: -V/T =      2.005894
@    MULPOP   O      -0.45; H       0.24; H       0.22; 
 -----------------------------------------------------------------------------
@  7  -75.1521328301     -0.191775859455        5.26731D-06   -1.27D-10
      Virial theorem: -V/T =      2.005894
@    MULPOP   O      -0.45; H       0.24; H       0.22; 
 -----------------------------------------------------------------------------
@  8  -75.1521328301     -0.191775886631        9.52535D-07   -5.13D-12

@ *** DIIS converged in   8 iterations !
@     Converged SCF energy, gradient:    -75.152132830148    9.53D-07
    - total time used in SIRFCK :              0.00 seconds


 *** SCF orbital energy analysis ***
   (incl. contribution from polarizable embedding potential)

 Number of electrons :   10
 Orbital occupations :    5

 Sym       Hartree-Fock orbital energies

1 A     -20.22346520    -1.26916846    -0.61402363    -0.47383114    -0.40033359
          0.62802783     0.75613372

    E(LUMO) :     0.62802783 au (symmetry 1)
  - E(HOMO) :    -0.40033359 au (symmetry 1)
  ------------------------------------------
    gap     :     1.02836142 au

    .--------------------------------------------------.
    | Final results from polarizable embedding library |
    `--------------------------------------------------´

        Polarizable embedding energy contributions:
       ---------------------------------------------

       Electrostatic contributions:
            Electronic                -0.141970058345
            Nuclear                    0.111046874002
            Multipole                 -0.119281937934
            Total                     -0.150205122277

       Polarization contributions:
            Electronic                -0.068853745545
            Nuclear                    0.063982138143
            Multipole                 -0.044082871048
            Total                     -0.048954478450

       LJ energy contribution:
            Dispersion 6              -0.011141957974
            Repulsion 12               0.018525672071

       Total PE energy:            -0.191775886631

 --- Writing SIRIFC interface file

 CPU and wall time for SCF :       0.387       0.389


                       .-----------------------------------.
                       | --- Final results from SIRIUS --- |
                       `-----------------------------------'


@    Spin multiplicity:           1
@    Spatial symmetry:            1 ( irrep  A   in C1  )
@    Total charge of molecule:    0

@    Final HF energy:             -75.152132830148                 
@    Nuclear repulsion:             9.195173291795
@    Electronic energy:           -84.155530235312
@    Embedding energy:             -0.191775886631

@    Final gradient norm:           0.000000952535

 
     Date and time (Linux)  : Sun Mar 11 23:23:33 2018
     Host name              : foeroyar                                

File label for MO orbitals:  11Mar18   FOCKDIIS

 (Only coefficients > 0.0100 are printed.)

 Molecular orbitals for symmetry species 1  (A  )
 ------------------------------------------------

    Orbital         1        2        3        4        5        6        7
   1 O   :1s    -0.9941   0.2356  -0.0018   0.0935   0.0086   0.1345  -0.0048
   2 O   :1s    -0.0267  -0.8478   0.0090  -0.4909  -0.0428  -0.8960   0.0326
   3 O   :2px   -0.0042  -0.1083   0.0538   0.7720   0.2123  -0.7090   0.1006
   4 O   :2py    0.0007   0.0143   0.3206  -0.2003   0.8375   0.1434   0.4737
   5 O   :2pz   -0.0000  -0.0030  -0.5375  -0.0492   0.5011  -0.0282  -0.8479
   6 H   :1s     0.0060  -0.1488   0.4218   0.2608   0.0106   0.7759  -0.8772
   7 H   :1s     0.0060  -0.1531  -0.4312   0.2627   0.0276   0.8307   0.8185

  Total CPU  time used in SIRIUS :   0.39 seconds
  Total wall time used in SIRIUS :   0.39 seconds

 
     Date and time (Linux)  : Sun Mar 11 23:23:33 2018
     Host name              : foeroyar                                


                     .---------------------------------------.
                     | End of Wave Function Section (SIRIUS) |
                     `---------------------------------------'


 Initial molecular Hessian will be calculated now.


@ WARNING. Analytical molecular Hessian is approximate because PEQM contributions are neglected.

 Center of mass dipole origin  :   -0.000698   -0.000573   -0.000634

 Center of mass gauge origin   :   -0.000698   -0.000573   -0.000634


                 .------------------------------------------------.
                 | Starting in Static Property Section (ABACUS) - |
                 `------------------------------------------------'



@ WARNING. Analytical molecular Hessian is approximate because PEQM contributions are neglected.

 
     Date and time (Linux)  : Sun Mar 11 23:23:33 2018
     Host name              : foeroyar                                


            +---------------------------------------------------------+
            ! Gradient elements calculated directly and from symmetry !
            +---------------------------------------------------------+



        Coordinate    Direct calc.     Tra.-rot. sym.   Difference
        ----------------------------------------------------------

        O    x        0.0572965164    -0.0014987216     0.0587952380
        O    y       -0.0048278444     0.0002605086    -0.0050883530
        O    z       -0.0057805073     0.0000105359    -0.0057910431
        H    x       -0.0301373110    -0.0014072058    -0.0287301052
        H    y       -0.0111582144    -0.0131823903     0.0020241760
        H    x       -0.0250550582     0.0029059274    -0.0279609856



 WARNING from TRAROT:

 Largest deviation from tra-rot symmetry is in gradient element  1:  5.88E-02


   ***************************************************************************
   ************************ FINAL RESULTS from ABACUS ************************
   ***************************************************************************


 
     Date and time (Linux)  : Sun Mar 11 23:23:33 2018
     Host name              : foeroyar                                

 WARNING: warnings have been issued, please check the output above !


                             Molecular geometry (au)
                             -----------------------

 O         -0.1228321981            0.0207869874            0.0000000000
 H          1.0847027957            0.5329027672           -1.2453295164
 H          0.8522664824           -0.8730534697            1.2339911596





                        Molecular wave function and energy
                        ----------------------------------

     Spatial symmetry   1 ( A   )
     Spin multiplicity  1
     2 * M_S            0
     State number       1
     Total charge       0

     Total energy        -75.1521328301 au (Hartrees)
                         -2044.99356064 eV
                           -197311.8943 kJ/mol
                            -47158.6746 kcal/mol


                   Scalar Breit-Pauli relativistic corrections
                   -------------------------------------------

     Darwin correction:                          0.1293614288 au
     Mass-velocity correction:                  -0.1668041759 au

     Total relativistic correction:             -0.0374427471 au ( 0.0498%)
     Non-relativistic + relativistic energy:   -75.1895755773 au



      (Note that these corrections are NOT included in the results below.)


                             Molecular gradient (au)
                             -----------------------

 O          0.0572965164           -0.0048278444           -0.0057805073
 H         -0.0301373110           -0.0111582144            0.0230110222
 H         -0.0250550582            0.0129218817           -0.0230215581





                              Molecular Hessian (au)
                              ----------------------

           O    x      O    y      O    z      H    x      H    y      H    z

 O    x    4.276978
 O    y   -0.643131    0.298776
 O    z   -0.214608   -0.414438    0.725952

 H    x   -2.237367    0.124845    0.460507    1.326741
 H    y    0.236657   -0.098130    0.149413   -0.043315    0.091640
 H    z    0.283575    0.178405   -0.366853   -0.334488   -0.184313    0.393732

 H    x   -2.039611    0.487085   -0.224441    0.939792   -0.189295    0.050912
 H    y    0.406474   -0.200646    0.262565   -0.099597    0.011140    0.005908
 H    z   -0.068967    0.236033   -0.359099   -0.114491    0.032440   -0.026879


           H    x      H    y      H    z

 H    x    1.113913
 H    y   -0.306877    0.189506
 H    z    0.183458   -0.268472    0.385979





                                  Dipole moment
                                  -------------

                 au               Debye          C m (/(10**-30)
              0.781277           1.985808           6.623942


                             Dipole moment components
                             ------------------------

                 au               Debye          C m (/(10**-30)

      x      0.77131063         1.96047594         6.53944383
      y     -0.12122206        -0.30811573        -1.02776344
      z     -0.02790811        -0.07093534        -0.23661482


   Units:   1 a.u. =   2.54175 Debye 
            1 a.u. =   8.47835 (10**-30) C m (SI)




   Interatomic separations (in Angstrom):
   --------------------------------------

            O           H           H     
            ------      ------      ------
 O     :    0.000000
 H     :    0.957101    0.000000
 H     :    0.957285    1.513278    0.000000


  Max    interatomic separation is    1.5133 Angstrom (    2.8597 Bohr)
  between atoms    3 and    2, "H     " and "H     ".

  Min HX interatomic separation is    0.9571 Angstrom (    1.8087 Bohr)


  Bond distances (Angstrom):
  --------------------------

                  atom 1     atom 2       distance
                  ------     ------       --------
  bond distance:  H          O            0.957101
  bond distance:  H          O            0.957285


  Bond angles (degrees):
  ----------------------

                  atom 1     atom 2     atom 3         angle
                  ------     ------     ------         -----
  bond angle:     H          O          H            104.460


  Total CPU  time used in ABACUS:   0.46 seconds
  Total wall time used in ABACUS:   0.46 seconds


                   .-------------------------------------------.
                   | End of Static Property Section (ABACUS) - |
                   `-------------------------------------------'

Initial Hessian is analytical Hessian

Initial Hessian has been calculated in Cartesian coordinates.


 Predicted energy change       -0.013609303784220


  Step in diagonal representation
  -------------------------------


               Column   1     Column   2     Column   3     Column   4     Column   5     Column   6     Column   7     Column   8
       1      -0.49305278     0.04416026     0.01100214     0.01786268     0.04047536    -0.00521741     0.05218571     0.00171347

               Column   9
       1      -0.01067143
    ==== End of matrix output ====


           :::::::::::::::::::::::::::::::::::::::::::::::::::::::::::
           ::::::::::::::: Optimization Control Center :::::::::::::::
           :::::::::::::::::::::::::::::::::::::::::::::::::::::::::::



                                Next geometry (au)
                                ------------------

 O         -0.2264298336           -0.3211542857           -0.1632729810
 H          1.0673953660            0.7416822171           -1.1571222186
 H          0.8639410260           -0.7232963761            1.3804498395





                             Optimization information
                             ------------------------

 Iteration number               :       0
 End of optimization            :       F 
 Energy at this geometry is     :     -75.152132830148
 Norm of gradient               :       0.078908850273
 Norm of step                   :       0.499996930771
 Updated trust radius           :       0.500000000000
 Total effective Hessian index  :       4




 **************************************************************************************
 ****************** Output of molecule and basis set info suppressed ******************
 **************************************************************************************



                     .---------------------------------------.
                     | Starting in Integral Section (HERMIT) |
                     `---------------------------------------'



 ***************************************************************************************
 ****************** Output from **INTEGRALS input processing (HERMIT) ******************
 ***************************************************************************************


 - Using defaults, no **INTEGRALS input found

 Default print level:       -1

 * Nuclear model: Point charge

 Calculation of one- and two-electron Hamiltonian integrals.

 Center of mass  (bohr):     -0.093016340254     -0.284183521806     -0.132503466319
 Operator center (bohr):      0.000000000000      0.000000000000      0.000000000000
 Gauge origin    (bohr):      0.000000000000      0.000000000000      0.000000000000
 Dipole origin   (bohr):      0.000000000000      0.000000000000      0.000000000000


                      Nuclear contribution to dipole moments
                      --------------------------------------

                 au               Debye          C m (/(10**-30)

      x      0.11989772         0.30474960         1.01653523
      y     -2.55084844        -6.48360962       -21.62699375
      z     -1.08285623        -2.75234582        -9.18083742



 Threshold for neglecting two-electron integrals:  1.00D-12
 HERMIT - Number of two-electron integrals written:         319 ( 78.6% )
 HERMIT - Megabytes written:                              0.007

  Total CPU  time used in HERMIT:   0.01 seconds
  Total wall time used in HERMIT:   0.01 seconds


                        .----------------------------------.
                        | End of Integral Section (HERMIT) |
                        `----------------------------------'



                   .--------------------------------------------.
                   | Starting in Wave Function Section (SIRIUS) |
                   `--------------------------------------------'

* Read MO coefficients from SIRIUS.RST with label "NEWORB  " and header info: 11Mar18  FOCKDIIS

 **********************************************************************
 *SIRIUS* a direct, restricted step, second order MCSCF program       *
 **********************************************************************

 (Wave function specification suppressed here, see output above for initial geometry.)


 ***********************************************
 ***** DIIS acceleration of SCF iterations *****
 ***********************************************

 C1-DIIS algorithm; max error vectors =    8

 Iter      Total energy     Embedding energy      Error norm     Delta(E)
 -----------------------------------------------------------------------------

Calculating AOSUPINT
     (Precalculated AO two-electron integrals are transformed to P-supermatrix elements.
      Threshold for discarding integrals :  1.00D-12 )
@  1  -75.1143264429     -0.193692909488        3.85901D-01    3.78D-02
      Virial theorem: -V/T =      2.005365
@    MULPOP   O      -0.46; H       0.24; H       0.22; 
 -----------------------------------------------------------------------------
@  2  -75.1411439707     -0.189748942636        1.75032D-01   -2.68D-02
      Virial theorem: -V/T =      2.007504
@    MULPOP   O      -0.39; H       0.21; H       0.19; 
 -----------------------------------------------------------------------------
@  3  -75.1484490420     -0.188528665424        3.28345D-02   -7.31D-03
      Virial theorem: -V/T =      2.007709
@    MULPOP   O      -0.39; H       0.20; H       0.18; 
 -----------------------------------------------------------------------------
@  4  -75.1487128480     -0.188450342114        2.72696D-03   -2.64D-04
      Virial theorem: -V/T =      2.007645
@    MULPOP   O      -0.39; H       0.20; H       0.18; 
 -----------------------------------------------------------------------------
@  5  -75.1487143050     -0.188484599142        5.09074D-04   -1.46D-06
      Virial theorem: -V/T =      2.007650
@    MULPOP   O      -0.39; H       0.20; H       0.18; 
 -----------------------------------------------------------------------------
@  6  -75.1487143455     -0.188474652581        1.55607D-04   -4.05D-08
      Virial theorem: -V/T =      2.007656
@    MULPOP   O      -0.39; H       0.20; H       0.18; 
 -----------------------------------------------------------------------------
@  7  -75.1487143479     -0.188478490026        2.18046D-05   -2.39D-09
      Virial theorem: -V/T =      2.007654
@    MULPOP   O      -0.39; H       0.20; H       0.18; 
 -----------------------------------------------------------------------------
@  8  -75.1487143480     -0.188478628135        2.58277D-06   -7.84D-11
      Virial theorem: -V/T =      2.007654
@    MULPOP   O      -0.39; H       0.20; H       0.18; 
 -----------------------------------------------------------------------------
@  9  -75.1487143480     -0.188478663474        6.62905D-07   -1.19D-12

@ *** DIIS converged in   9 iterations !
@     Converged SCF energy, gradient:    -75.148714347956    6.63D-07
    - total time used in SIRFCK :              0.00 seconds


 *** SCF orbital energy analysis ***
   (incl. contribution from polarizable embedding potential)

 Number of electrons :   10
 Orbital occupations :    5

 Sym       Hartree-Fock orbital energies

1 A     -20.23098047    -1.24008290    -0.56561549    -0.46499724    -0.39473331
          0.57404904     0.66677098

    E(LUMO) :     0.57404904 au (symmetry 1)
  - E(HOMO) :    -0.39473331 au (symmetry 1)
  ------------------------------------------
    gap     :     0.96878234 au

    .--------------------------------------------------.
    | Final results from polarizable embedding library |
    `--------------------------------------------------´

        Polarizable embedding energy contributions:
       ---------------------------------------------

       Electrostatic contributions:
            Electronic                -0.135350363998
            Nuclear                    0.107827605462
            Multipole                 -0.119281937934
            Total                     -0.146804696470

       Polarization contributions:
            Electronic                -0.046442386330
            Nuclear                    0.042948368472
            Multipole                 -0.043713834314
            Total                     -0.047207852173

       LJ energy contribution:
            Dispersion 6              -0.010499740110
            Repulsion 12               0.016033625279

       Total PE energy:            -0.188478663474

 --- Writing SIRIFC interface file

 CPU and wall time for SCF :       0.397       0.398


                       .-----------------------------------.
                       | --- Final results from SIRIUS --- |
                       `-----------------------------------'


@    Spin multiplicity:           1
@    Spatial symmetry:            1 ( irrep  A   in C1  )
@    Total charge of molecule:    0

@    Final HF energy:             -75.148714347956                 
@    Nuclear repulsion:             8.589249660100
@    Electronic energy:           -83.549485344582
@    Embedding energy:             -0.188478663474

@    Final gradient norm:           0.000000662905

 
     Date and time (Linux)  : Sun Mar 11 23:23:34 2018
     Host name              : foeroyar                                

  Total CPU  time used in SIRIUS :   0.40 seconds
  Total wall time used in SIRIUS :   0.40 seconds

 
     Date and time (Linux)  : Sun Mar 11 23:23:34 2018
     Host name              : foeroyar                                


                     .---------------------------------------.
                     | End of Wave Function Section (SIRIUS) |
                     `---------------------------------------'


 Step rejected because ratio between
        actual energy change :    0.00341848
 and predicted energy change :   -0.01360930
                          is :         -0.25
 Minimum for quadratic model :     0.369678
 Norm of new step            :     0.184838


 **************************************************************************************
 ****************** Output of molecule and basis set info suppressed ******************
 **************************************************************************************



                     .---------------------------------------.
                     | Starting in Integral Section (HERMIT) |
                     `---------------------------------------'



 ***************************************************************************************
 ****************** Output from **INTEGRALS input processing (HERMIT) ******************
 ***************************************************************************************


 - Using defaults, no **INTEGRALS input found

 Default print level:       -1

 * Nuclear model: Point charge

 Calculation of one- and two-electron Hamiltonian integrals.

 Center of mass  (bohr):     -0.034825800099     -0.105417730519     -0.049383506893
 Operator center (bohr):      0.000000000000      0.000000000000      0.000000000000
 Gauge origin    (bohr):      0.000000000000      0.000000000000      0.000000000000
 Dipole origin   (bohr):      0.000000000000      0.000000000000      0.000000000000


                      Nuclear contribution to dipole moments
                      --------------------------------------

                 au               Debye          C m (/(10**-30)

      x      0.64584738         1.64158018         5.47572209
      y     -1.05257657        -2.67538262        -8.92411582
      z     -0.40745472        -1.03564653        -3.45454498



 Threshold for neglecting two-electron integrals:  1.00D-12
 HERMIT - Number of two-electron integrals written:         319 ( 78.6% )
 HERMIT - Megabytes written:                              0.007

  Total CPU  time used in HERMIT:   0.01 seconds
  Total wall time used in HERMIT:   0.01 seconds


                        .----------------------------------.
                        | End of Integral Section (HERMIT) |
                        `----------------------------------'



                   .--------------------------------------------.
                   | Starting in Wave Function Section (SIRIUS) |
                   `--------------------------------------------'

* Read MO coefficients from SIRIUS.RST with label "NEWORB  " and header info: 11Mar18  FOCKDIIS

 **********************************************************************
 *SIRIUS* a direct, restricted step, second order MCSCF program       *
 **********************************************************************

 (Wave function specification suppressed here, see output above for initial geometry.)


 ***********************************************
 ***** DIIS acceleration of SCF iterations *****
 ***********************************************

 C1-DIIS algorithm; max error vectors =    8

 Iter      Total energy     Embedding energy      Error norm     Delta(E)
 -----------------------------------------------------------------------------

Calculating AOSUPINT
     (Precalculated AO two-electron integrals are transformed to P-supermatrix elements.
      Threshold for discarding integrals :  1.00D-12 )
@  1  -75.1404092681     -0.188547251626        2.49891D-01    8.31D-03
      Virial theorem: -V/T =      2.006083
@    MULPOP   O      -0.40; H       0.21; H       0.19; 
 -----------------------------------------------------------------------------
@  2  -75.1510117690     -0.191444403927        1.11805D-01   -1.06D-02
      Virial theorem: -V/T =      2.005922
@    MULPOP   O      -0.44; H       0.23; H       0.21; 
 -----------------------------------------------------------------------------
@  3  -75.1537817105     -0.191531654391        1.64972D-02   -2.77D-03
      Virial theorem: -V/T =      2.006417
@    MULPOP   O      -0.43; H       0.23; H       0.21; 
 -----------------------------------------------------------------------------
@  4  -75.1538345393     -0.191747850201        1.45731D-03   -5.28D-05
      Virial theorem: -V/T =      2.006330
@    MULPOP   O      -0.44; H       0.23; H       0.21; 
 -----------------------------------------------------------------------------
@  5  -75.1538347885     -0.191768645157        1.96773D-04   -2.49D-07
      Virial theorem: -V/T =      2.006314
@    MULPOP   O      -0.44; H       0.23; H       0.21; 
 -----------------------------------------------------------------------------
@  6  -75.1538347944     -0.191765508122        3.13113D-05   -5.90D-09
      Virial theorem: -V/T =      2.006314
@    MULPOP   O      -0.44; H       0.23; H       0.21; 
 -----------------------------------------------------------------------------
@  7  -75.1538347946     -0.191766063608        7.62501D-06   -1.64D-10
      Virial theorem: -V/T =      2.006314
@    MULPOP   O      -0.44; H       0.23; H       0.21; 
 -----------------------------------------------------------------------------
@  8  -75.1538347946     -0.191765798944        3.04103D-06   -5.74D-12
      Virial theorem: -V/T =      2.006314
@    MULPOP   O      -0.44; H       0.23; H       0.21; 
 -----------------------------------------------------------------------------
@  9  -75.1538347946     -0.191765863421        3.24355D-07   -8.53D-13

@ *** DIIS converged in   9 iterations !
@     Converged SCF energy, gradient:    -75.153834794574    3.24D-07
    - total time used in SIRFCK :              0.00 seconds


 *** SCF orbital energy analysis ***
   (incl. contribution from polarizable embedding potential)

 Number of electrons :   10
 Orbital occupations :    5

 Sym       Hartree-Fock orbital energies

1 A     -20.22332754    -1.26186769    -0.60425754    -0.46826773    -0.39859307
          0.61682890     0.73954666

    E(LUMO) :     0.61682890 au (symmetry 1)
  - E(HOMO) :    -0.39859307 au (symmetry 1)
  ------------------------------------------
    gap     :     1.01542197 au

    .--------------------------------------------------.
    | Final results from polarizable embedding library |
    `--------------------------------------------------´

        Polarizable embedding energy contributions:
       ---------------------------------------------

       Electrostatic contributions:
            Electronic                -0.139767566006
            Nuclear                    0.109345812255
            Multipole                 -0.119281937934
            Total                     -0.149703691685

       Polarization contributions:
            Electronic                -0.060317707329
            Nuclear                    0.055921223024
            Multipole                 -0.043944329083
            Total                     -0.048340813388

       LJ energy contribution:
            Dispersion 6              -0.010843688772
            Repulsion 12               0.017122330424

       Total PE energy:            -0.191765863421

 --- Writing SIRIFC interface file

 CPU and wall time for SCF :       0.392       0.393


                       .-----------------------------------.
                       | --- Final results from SIRIUS --- |
                       `-----------------------------------'


@    Spin multiplicity:           1
@    Spatial symmetry:            1 ( irrep  A   in C1  )
@    Total charge of molecule:    0

@    Final HF energy:             -75.153834794574                 
@    Nuclear repulsion:             9.063564218671
@    Electronic energy:           -84.025633149824
@    Embedding energy:             -0.191765863421

@    Final gradient norm:           0.000000324355

 
     Date and time (Linux)  : Sun Mar 11 23:23:34 2018
     Host name              : foeroyar                                

  Total CPU  time used in SIRIUS :   0.39 seconds
  Total wall time used in SIRIUS :   0.39 seconds

 
     Date and time (Linux)  : Sun Mar 11 23:23:34 2018
     Host name              : foeroyar                                


                     .---------------------------------------.
                     | End of Wave Function Section (SIRIUS) |
                     `---------------------------------------'


Acceptable step has been found.

 Center of mass dipole origin  :   -0.034826   -0.105418   -0.049384

 Center of mass gauge origin   :   -0.034826   -0.105418   -0.049384


                 .------------------------------------------------.
                 | Starting in Static Property Section (ABACUS) - |
                 `------------------------------------------------'


 
     Date and time (Linux)  : Sun Mar 11 23:23:34 2018
     Host name              : foeroyar                                


            +---------------------------------------------------------+
            ! Gradient elements calculated directly and from symmetry !
            +---------------------------------------------------------+



        Coordinate    Direct calc.     Tra.-rot. sym.   Difference
        ----------------------------------------------------------

        O    x        0.0324175541     0.0351486203    -0.0027310662
        O    y       -0.0035207358     0.0003443639    -0.0038650997
        O    z       -0.0033975468     0.0025460983    -0.0059436451
        H    x       -0.0172304624    -0.0188115977     0.0015811353
        H    y       -0.0061057687    -0.0066749237     0.0005691550
        H    y        0.0041283653     0.0063305598    -0.0022021945



 WARNING from TRAROT:

 Largest deviation from tra-rot symmetry is in gradient element  3:  5.94E-03


   ***************************************************************************
   ************************ FINAL RESULTS from ABACUS ************************
   ***************************************************************************


 
     Date and time (Linux)  : Sun Mar 11 23:23:34 2018
     Host name              : foeroyar                                

 WARNING: warnings have been issued, please check the output above !
  Total CPU  time used in ABACUS:   0.10 seconds
  Total wall time used in ABACUS:   0.10 seconds


                   .-------------------------------------------.
                   | End of Static Property Section (ABACUS) - |
                   `-------------------------------------------'


 Predicted energy change       -0.001625537213733


  Step in diagonal representation
  -------------------------------


               Column   1     Column   2     Column   3     Column   4     Column   5     Column   6     Column   7     Column   8
       1       0.09678029     0.07342661    -0.02893967     0.13144209    -0.03341514     0.00770313     0.00956721     0.00041608

               Column   9
       1      -0.00500171
    ==== End of matrix output ====


           :::::::::::::::::::::::::::::::::::::::::::::::::::::::::::
           ::::::::::::::: Optimization Control Center :::::::::::::::
           :::::::::::::::::::::::::::::::::::::::::::::::::::::::::::



                                Next geometry (au)
                                ------------------

 O         -0.1634465611           -0.1331040439           -0.0261588847
 H          1.0318188496            0.6611729318           -1.2095105037
 H          0.9468378492           -0.7035120816            1.3673196286





                             Optimization information
                             ------------------------

 Iteration number               :       1
 End of optimization            :       F 
 Energy at this geometry is     :     -75.153834794574
 Energy change from last geom.  :      -0.001701964425
 Predicted change               :      -0.013609303784
 Ratio, actual/predicted change :       0.125058890033
 Norm of gradient               :       0.044212279849
 Norm of step                   :       0.184837903748
 Updated trust radius           :       0.184837763017
 Total effective Hessian index  :       3




 **************************************************************************************
 ****************** Output of molecule and basis set info suppressed ******************
 **************************************************************************************



                     .---------------------------------------.
                     | Starting in Integral Section (HERMIT) |
                     `---------------------------------------'



 ***************************************************************************************
 ****************** Output from **INTEGRALS input processing (HERMIT) ******************
 ***************************************************************************************


 - Using defaults, no **INTEGRALS input found

 Default print level:       -1

 * Nuclear model: Point charge

 Calculation of one- and two-electron Hamiltonian integrals.

 Center of mass  (bohr):     -0.034433909416     -0.120576912642     -0.014400722875
 Operator center (bohr):      0.000000000000      0.000000000000      0.000000000000
 Gauge origin    (bohr):      0.000000000000      0.000000000000      0.000000000000
 Dipole origin   (bohr):      0.000000000000      0.000000000000      0.000000000000


                      Nuclear contribution to dipole moments
                      --------------------------------------

                 au               Debye          C m (/(10**-30)

      x      0.67108421         1.70572581         5.68968888
      y     -1.10717150        -2.81414908        -9.38699090
      z     -0.05146195        -0.13080323        -0.43631260



 Threshold for neglecting two-electron integrals:  1.00D-12
 HERMIT - Number of two-electron integrals written:         319 ( 78.6% )
 HERMIT - Megabytes written:                              0.007

  Total CPU  time used in HERMIT:   0.01 seconds
  Total wall time used in HERMIT:   0.01 seconds


                        .----------------------------------.
                        | End of Integral Section (HERMIT) |
                        `----------------------------------'



                   .--------------------------------------------.
                   | Starting in Wave Function Section (SIRIUS) |
                   `--------------------------------------------'

* Read MO coefficients from SIRIUS.RST with label "NEWORB  " and header info: 11Mar18  FOCKDIIS

 **********************************************************************
 *SIRIUS* a direct, restricted step, second order MCSCF program       *
 **********************************************************************

 (Wave function specification suppressed here, see output above for initial geometry.)


 ***********************************************
 ***** DIIS acceleration of SCF iterations *****
 ***********************************************

 C1-DIIS algorithm; max error vectors =    8

 Iter      Total energy     Embedding energy      Error norm     Delta(E)
 -----------------------------------------------------------------------------

Calculating AOSUPINT
     (Precalculated AO two-electron integrals are transformed to P-supermatrix elements.
      Threshold for discarding integrals :  1.00D-12 )
@  1  -75.1529572939     -0.192688052832        9.80315D-02    8.78D-04
      Virial theorem: -V/T =      2.006547
@    MULPOP   O      -0.44; H       0.23; H       0.21; 
 -----------------------------------------------------------------------------
@  2  -75.1544495180     -0.192047773826        4.03818D-02   -1.49D-03
      Virial theorem: -V/T =      2.006781
@    MULPOP   O      -0.43; H       0.22; H       0.20; 
 -----------------------------------------------------------------------------
@  3  -75.1547847146     -0.191996431181        5.67033D-03   -3.35D-04
      Virial theorem: -V/T =      2.006741
@    MULPOP   O      -0.43; H       0.22; H       0.20; 
 -----------------------------------------------------------------------------
@  4  -75.1547916186     -0.191975678389        1.44885D-03   -6.90D-06
      Virial theorem: -V/T =      2.006747
@    MULPOP   O      -0.43; H       0.22; H       0.20; 
 -----------------------------------------------------------------------------
@  5  -75.1547920376     -0.191977375148        1.32087D-04   -4.19D-07
      Virial theorem: -V/T =      2.006746
@    MULPOP   O      -0.43; H       0.22; H       0.20; 
 -----------------------------------------------------------------------------
@  6  -75.1547920406     -0.191976234013        2.74529D-05   -2.96D-09
      Virial theorem: -V/T =      2.006746
@    MULPOP   O      -0.43; H       0.22; H       0.20; 
 -----------------------------------------------------------------------------
@  7  -75.1547920407     -0.191976309230        6.21178D-06   -1.35D-10
      Virial theorem: -V/T =      2.006746
@    MULPOP   O      -0.43; H       0.22; H       0.20; 
 -----------------------------------------------------------------------------
@  8  -75.1547920407     -0.191976346052        3.85649D-07   -7.83D-12

@ *** DIIS converged in   8 iterations !
@     Converged SCF energy, gradient:    -75.154792040715    3.86D-07
    - total time used in SIRFCK :              0.00 seconds


 *** SCF orbital energy analysis ***
   (incl. contribution from polarizable embedding potential)

 Number of electrons :   10
 Orbital occupations :    5

 Sym       Hartree-Fock orbital energies

1 A     -20.22461196    -1.25467594    -0.59350621    -0.46648168    -0.39770024
          0.60340777     0.72016117

    E(LUMO) :     0.60340777 au (symmetry 1)
  - E(HOMO) :    -0.39770024 au (symmetry 1)
  ------------------------------------------
    gap     :     1.00110800 au

    .--------------------------------------------------.
    | Final results from polarizable embedding library |
    `--------------------------------------------------´

        Polarizable embedding energy contributions:
       ---------------------------------------------

       Electrostatic contributions:
            Electronic                -0.138837688414
            Nuclear                    0.108216157474
            Multipole                 -0.119281937934
            Total                     -0.149903468874

       Polarization contributions:
            Electronic                -0.058994378551
            Nuclear                    0.054731734536
            Multipole                 -0.043841980007
            Total                     -0.048104624022

       LJ energy contribution:
            Dispersion 6              -0.010787239007
            Repulsion 12               0.016818985852

       Total PE energy:            -0.191976346052

 --- Writing SIRIFC interface file

 CPU and wall time for SCF :       0.345       0.346


                       .-----------------------------------.
                       | --- Final results from SIRIUS --- |
                       `-----------------------------------'


@    Spin multiplicity:           1
@    Spatial symmetry:            1 ( irrep  A   in C1  )
@    Total charge of molecule:    0

@    Final HF energy:             -75.154792040715                 
@    Nuclear repulsion:             8.919972427085
@    Electronic energy:           -83.882788121748
@    Embedding energy:             -0.191976346052

@    Final gradient norm:           0.000000385649

 
     Date and time (Linux)  : Sun Mar 11 23:23:34 2018
     Host name              : foeroyar                                

  Total CPU  time used in SIRIUS :   0.35 seconds
  Total wall time used in SIRIUS :   0.35 seconds

 
     Date and time (Linux)  : Sun Mar 11 23:23:34 2018
     Host name              : foeroyar                                


                     .---------------------------------------.
                     | End of Wave Function Section (SIRIUS) |
                     `---------------------------------------'

 Trust radius set equal to norm of step.
 Updated trust radius   0.18484

 Center of mass dipole origin  :   -0.034434   -0.120577   -0.014401

 Center of mass gauge origin   :   -0.034434   -0.120577   -0.014401


                 .------------------------------------------------.
                 | Starting in Static Property Section (ABACUS) - |
                 `------------------------------------------------'


 
     Date and time (Linux)  : Sun Mar 11 23:23:34 2018
     Host name              : foeroyar                                


            +---------------------------------------------------------+
            ! Gradient elements calculated directly and from symmetry !
            +---------------------------------------------------------+



        Coordinate    Direct calc.     Tra.-rot. sym.   Difference
        ----------------------------------------------------------

        O    x        0.0067125096     0.0202185386    -0.0135060290
        O    y       -0.0010259627     0.0069176603    -0.0079436230
        O    z       -0.0124665973    -0.0075975790    -0.0048690183
        H    x       -0.0080031428    -0.0142911923     0.0062880495
        H    y       -0.0005453216    -0.0034076870     0.0028623654
        H    x       -0.0006873206    -0.0059273463     0.0052400258



 WARNING from TRAROT:

 Largest deviation from tra-rot symmetry is in gradient element  1:  1.35E-02


   ***************************************************************************
   ************************ FINAL RESULTS from ABACUS ************************
   ***************************************************************************


 
     Date and time (Linux)  : Sun Mar 11 23:23:34 2018
     Host name              : foeroyar                                

 WARNING: warnings have been issued, please check the output above !
  Total CPU  time used in ABACUS:   0.10 seconds
  Total wall time used in ABACUS:   0.10 seconds


                   .-------------------------------------------.
                   | End of Static Property Section (ABACUS) - |
                   `-------------------------------------------'


 Predicted energy change       -0.000979153315599


  Step in diagonal representation
  -------------------------------


               Column   1     Column   2     Column   3     Column   4     Column   5     Column   6     Column   7     Column   8
       1      -0.08452003     0.05481496     0.10378512     0.10984397     0.01146450     0.03135407     0.00396582     0.00701246

               Column   9
       1      -0.00029209
    ==== End of matrix output ====


           :::::::::::::::::::::::::::::::::::::::::::::::::::::::::::
           ::::::::::::::: Optimization Control Center :::::::::::::::
           :::::::::::::::::::::::::::::::::::::::::::::::::::::::::::



                                Next geometry (au)
                                ------------------

 O         -0.1544972688           -0.0498996935            0.0992428675
 H          0.9842814889            0.7181795532           -1.1650420891
 H          0.9999356986           -0.6930813764            1.3992732867





                             Optimization information
                             ------------------------

 Iteration number               :       2
 End of optimization            :       F 
 Energy at this geometry is     :     -75.154792040715
 Energy change from last geom.  :      -0.000957246141
 Predicted change               :      -0.001625537214
 Ratio, actual/predicted change :       0.588879868994
 Norm of gradient               :       0.017625680178
 Norm of step                   :       0.184837404590
 Updated trust radius           :       0.184837903748
 Total effective Hessian index  :       2




 **************************************************************************************
 ****************** Output of molecule and basis set info suppressed ******************
 **************************************************************************************



                     .---------------------------------------.
                     | Starting in Integral Section (HERMIT) |
                     `---------------------------------------'



 ***************************************************************************************
 ****************** Output from **INTEGRALS input processing (HERMIT) ******************
 ***************************************************************************************


 - Using defaults, no **INTEGRALS input found

 Default print level:       -1

 * Nuclear model: Point charge

 Calculation of one- and two-electron Hamiltonian integrals.

 Center of mass  (bohr):     -0.026175025359     -0.042910746350      0.101243091873
 Operator center (bohr):      0.000000000000      0.000000000000      0.000000000000
 Gauge origin    (bohr):      0.000000000000      0.000000000000      0.000000000000
 Dipole origin   (bohr):      0.000000000000      0.000000000000      0.000000000000


                      Nuclear contribution to dipole moments
                      --------------------------------------

                 au               Debye          C m (/(10**-30)

      x      0.74823904         1.90183381         6.34383474
      y     -0.37409937        -0.95086570        -3.17174655
      z      1.02817414         2.61335782         8.71722336



 Threshold for neglecting two-electron integrals:  1.00D-12
 HERMIT - Number of two-electron integrals written:         319 ( 78.6% )
 HERMIT - Megabytes written:                              0.007

  Total CPU  time used in HERMIT:   0.01 seconds
  Total wall time used in HERMIT:   0.01 seconds


                        .----------------------------------.
                        | End of Integral Section (HERMIT) |
                        `----------------------------------'



                   .--------------------------------------------.
                   | Starting in Wave Function Section (SIRIUS) |
                   `--------------------------------------------'

* Read MO coefficients from SIRIUS.RST with label "NEWORB  " and header info: 11Mar18  FOCKDIIS

 **********************************************************************
 *SIRIUS* a direct, restricted step, second order MCSCF program       *
 **********************************************************************

 (Wave function specification suppressed here, see output above for initial geometry.)


 ***********************************************
 ***** DIIS acceleration of SCF iterations *****
 ***********************************************

 C1-DIIS algorithm; max error vectors =    8

 Iter      Total energy     Embedding energy      Error norm     Delta(E)
 -----------------------------------------------------------------------------

Calculating AOSUPINT
     (Precalculated AO two-electron integrals are transformed to P-supermatrix elements.
      Threshold for discarding integrals :  1.00D-12 )
@  1  -75.1541725615     -0.192451678693        7.65386D-02    6.19D-04
      Virial theorem: -V/T =      2.006647
@    MULPOP   O      -0.43; H       0.22; H       0.21; 
 -----------------------------------------------------------------------------
@  2  -75.1551174942     -0.192844744834        3.21263D-02   -9.45D-04
      Virial theorem: -V/T =      2.006601
@    MULPOP   O      -0.43; H       0.22; H       0.21; 
 -----------------------------------------------------------------------------
@  3  -75.1553316293     -0.192880803395        3.60703D-03   -2.14D-04
      Virial theorem: -V/T =      2.006655
@    MULPOP   O      -0.43; H       0.22; H       0.21; 
 -----------------------------------------------------------------------------
@  4  -75.1553341117     -0.192907578405        1.01686D-03   -2.48D-06
      Virial theorem: -V/T =      2.006642
@    MULPOP   O      -0.43; H       0.22; H       0.21; 
 -----------------------------------------------------------------------------
@  5  -75.1553343141     -0.192904712895        1.28786D-04   -2.02D-07
      Virial theorem: -V/T =      2.006644
@    MULPOP   O      -0.43; H       0.22; H       0.21; 
 -----------------------------------------------------------------------------
@  6  -75.1553343168     -0.192904428862        1.38390D-05   -2.67D-09
      Virial theorem: -V/T =      2.006644
@    MULPOP   O      -0.43; H       0.22; H       0.21; 
 -----------------------------------------------------------------------------
@  7  -75.1553343168     -0.192904497806        3.99714D-06   -3.25D-11
      Virial theorem: -V/T =      2.006644
@    MULPOP   O      -0.43; H       0.22; H       0.21; 
 -----------------------------------------------------------------------------
@  8  -75.1553343168     -0.192904460791        4.31815D-07   -3.33D-12

@ *** DIIS converged in   8 iterations !
@     Converged SCF energy, gradient:    -75.155334316799    4.32D-07
    - total time used in SIRFCK :              0.00 seconds


 *** SCF orbital energy analysis ***
   (incl. contribution from polarizable embedding potential)

 Number of electrons :   10
 Orbital occupations :    5

 Sym       Hartree-Fock orbital energies

1 A     -20.22435360    -1.25621041    -0.59738634    -0.46790742    -0.39897188
          0.60409132     0.72423164

    E(LUMO) :     0.60409132 au (symmetry 1)
  - E(HOMO) :    -0.39897188 au (symmetry 1)
  ------------------------------------------
    gap     :     1.00306320 au

    .--------------------------------------------------.
    | Final results from polarizable embedding library |
    `--------------------------------------------------´

        Polarizable embedding energy contributions:
       ---------------------------------------------

       Electrostatic contributions:
            Electronic                -0.147627390656
            Nuclear                    0.115808900071
            Multipole                 -0.119281937934
            Total                     -0.151100428519

       Polarization contributions:
            Electronic                -0.066469825096
            Nuclear                    0.061841296145
            Multipole                 -0.043872243029
            Total                     -0.048500771980

       LJ energy contribution:
            Dispersion 6              -0.011019335287
            Repulsion 12               0.017716074995

       Total PE energy:            -0.192904460791

 --- Writing SIRIFC interface file

 CPU and wall time for SCF :       0.345       0.345


                       .-----------------------------------.
                       | --- Final results from SIRIUS --- |
                       `-----------------------------------'


@    Spin multiplicity:           1
@    Spatial symmetry:            1 ( irrep  A   in C1  )
@    Total charge of molecule:    0

@    Final HF energy:             -75.155334316799                 
@    Nuclear repulsion:             8.942424656449
@    Electronic energy:           -83.904854512457
@    Embedding energy:             -0.192904460791

@    Final gradient norm:           0.000000431815

 
     Date and time (Linux)  : Sun Mar 11 23:23:35 2018
     Host name              : foeroyar                                

  Total CPU  time used in SIRIUS :   0.35 seconds
  Total wall time used in SIRIUS :   0.35 seconds

 
     Date and time (Linux)  : Sun Mar 11 23:23:35 2018
     Host name              : foeroyar                                


                     .---------------------------------------.
                     | End of Wave Function Section (SIRIUS) |
                     `---------------------------------------'

 Trust radius set equal to norm of step.
 Updated trust radius   0.18484

 Center of mass dipole origin  :   -0.026175   -0.042911    0.101243

 Center of mass gauge origin   :   -0.026175   -0.042911    0.101243


                 .------------------------------------------------.
[...]

 Number of electrons :   10
 Orbital occupations :    5

 Sym       Hartree-Fock orbital energies

1 A     -20.23144793    -1.26075418    -0.59446735    -0.47872040    -0.40640266
          0.60157171     0.71198823

    E(LUMO) :     0.60157171 au (symmetry 1)
  - E(HOMO) :    -0.40640266 au (symmetry 1)
  ------------------------------------------
    gap     :     1.00797437 au

    .--------------------------------------------------.
    | Final results from polarizable embedding library |
    `--------------------------------------------------´

        Polarizable embedding energy contributions:
       ---------------------------------------------

       Electrostatic contributions:
            Electronic                -0.169968896682
            Nuclear                    0.137216846792
            Multipole                 -0.119281937934
            Total                     -0.152033987825

       Polarization contributions:
            Electronic                -0.077814927129
            Nuclear                    0.072491669232
            Multipole                 -0.044089721798
            Total                     -0.049412979696

       LJ energy contribution:
            Dispersion 6              -0.011250587504
            Repulsion 12               0.018811955373

       Total PE energy:            -0.193885599652

 --- Writing SIRIFC interface file

 CPU and wall time for SCF :       0.311       0.312


                       .-----------------------------------.
                       | --- Final results from SIRIUS --- |
                       `-----------------------------------'


@    Spin multiplicity:           1
@    Spatial symmetry:            1 ( irrep  A   in C1  )
@    Total charge of molecule:    0

@    Final HF energy:             -75.156692854343                 
@    Nuclear repulsion:             8.927676635018
@    Electronic energy:           -83.890483889709
@    Embedding energy:             -0.193885599652

@    Final gradient norm:           0.000000263767

 
     Date and time (Linux)  : Sun Mar 11 23:24:04 2018
     Host name              : foeroyar                                

  Total CPU  time used in SIRIUS :   0.31 seconds
  Total wall time used in SIRIUS :   0.31 seconds

 
     Date and time (Linux)  : Sun Mar 11 23:24:04 2018
     Host name              : foeroyar                                


                     .---------------------------------------.
                     | End of Wave Function Section (SIRIUS) |
                     `---------------------------------------'


 Center of mass dipole origin  :   -0.118829   -0.267980    0.577493

 Center of mass gauge origin   :   -0.118829   -0.267980    0.577493


                 .------------------------------------------------.
                 | Starting in Static Property Section (ABACUS) - |
                 `------------------------------------------------'



@ WARNING. Analytical molecular Hessian is approximate because PEQM contributions are neglected.

 
     Date and time (Linux)  : Sun Mar 11 23:24:04 2018
     Host name              : foeroyar                                

 Largest deviation from tra-rot symmetry is in gradient element  1:  7.67E-07


   ***************************************************************************
   ************************ FINAL RESULTS from ABACUS ************************
   ***************************************************************************


 
     Date and time (Linux)  : Sun Mar 11 23:24:04 2018
     Host name              : foeroyar                                
  Total CPU  time used in ABACUS:   0.42 seconds
  Total wall time used in ABACUS:   0.42 seconds


                   .-------------------------------------------.
                   | End of Static Property Section (ABACUS) - |
                   `-------------------------------------------'



                   Analytical gradient in symmetry coordinates
                   -------------------------------------------



                         Gradient in symmetry coordinates
                         --------------------------------

                                    -0.00000041
                                     0.00000020
                                    -0.00000027
                                     0.00000010
                                    -0.00000007
                                     0.00000030
                                     0.00000033
                                    -0.00000009
                                     0.00000003


                        Gradient in cartesian coordinates
                        ---------------------------------

 O         -0.0000004138            0.0000002019           -0.0000002710
 H          0.0000001019           -0.0000000655            0.0000002962
 H          0.0000003288           -0.0000000881            0.0000000278


                    Numerical hessian in symmetry coordinates
                    -----------------------------------------



                         Hessian in symmetry coordinates
                         -------------------------------


        Notation: irrep/coordinate number

           1/   1      1/   2      1/   3      1/   4      1/   5      1/   6
 1/   1    0.666735
 1/   2   -0.058656    0.095729
 1/   3   -0.037787   -0.173217    0.798613
 1/   4   -0.378668   -0.039648    0.335579    0.360693
 1/   5   -0.016238   -0.018727    0.044481    0.026456    0.015937
 1/   6    0.229446    0.055487   -0.347591   -0.289871   -0.054629    0.381050
 1/   7   -0.256086    0.101813   -0.292434    0.017476   -0.016047    0.060768
 1/   8    0.076490   -0.054993    0.134574    0.009573   -0.000232    0.000773
 1/   9   -0.187545    0.122912   -0.426923   -0.049057    0.013768   -0.032691

           1/   7      1/   8      1/   9
 1/   7    0.239854
 1/   8   -0.078870    0.053264
 1/   9    0.233221   -0.130892    0.458167



                           Cartesian Hessian in GSPHES
                           ---------------------------

            O      x    O      y    O      z    H      x    H      y    H      z

 O      x    0.666735
 O      y   -0.058656    0.095729
 O      z   -0.037787   -0.173217    0.798613

 H      x   -0.378668   -0.039648    0.335579    0.360693
 H      y   -0.016238   -0.018727    0.044481    0.026456    0.015937
 H      z    0.229446    0.055487   -0.347591   -0.289871   -0.054629    0.381050

 H      x   -0.256086    0.101813   -0.292434    0.017476   -0.016047    0.060768
 H      y    0.076490   -0.054993    0.134574    0.009573   -0.000232    0.000773
 H      z   -0.187545    0.122912   -0.426923   -0.049057    0.013768   -0.032691


            H      x    H      y    H      z

 H      x    0.239854
 H      y   -0.078870    0.053264
 H      z    0.233221   -0.130892    0.458167


          Number of modes with zero frequency:   0


                 Vibrational frequencies harmonic approximation:
                 -----------------------------------------------

                     Mode     cm-1       hartrees  
                       1      174.93    0.000797
                       1       64.15    0.000292
                       1      209.83    0.000956
                       1      484.04    0.002205
                       1      434.52    0.001980
                       1     4391.49    0.020009
                       1     2174.30    0.009907
                       1      635.46    0.002895
                       1     4150.27    0.018910


 Normal coordinates:
 -------------------

          1            1            1            1            1            1
    0.4581103    0.0222894    0.0854456    0.0011315   -0.0848871    0.0141403
   -0.1149126    0.3493875    0.2658171   -0.0254988   -0.0848712    0.0143662
   -0.0589922   -0.2968138    0.3420805   -0.0856293   -0.0025618   -0.0654026
    0.5156147    0.0538441    0.2819995    0.5244870    0.0417028   -0.5610642
    0.4049524    0.6995175    0.4178365   -0.1892912    0.9153057   -0.0658968
    0.0590898   -0.2248688    0.5569603    0.4303013    0.2445075    0.5572684
    0.4338955    0.0307898   -0.1253355   -0.5781970   -0.1160520    0.3349022
   -0.3717790    0.3986861    0.1530535    0.1621457   -0.2671694   -0.1505744
   -0.1167414   -0.2943547    0.4489666    0.3678805   -0.0378080    0.4804171
                                        
          1            1            1
   -0.0676021    0.0102758   -0.0509459
    0.0091853   -0.0772615    0.0091944
   -0.0047653    0.0123371   -0.0132122
    0.4807646   -0.0636142    0.4040724
   -0.1660712    0.2195835    0.0594888
    0.4697477   -0.0276574   -0.4512513
    0.5977859    0.2412753    0.3960673
    0.0278552    0.9242990   -0.1984321
   -0.3972679    0.1679339    0.6560943
                                        


@Number of gradient calculations done:        19


 *************************************************************************************
 ****************** Numerical derivatives have now been calculated. ******************
 *************************************************************************************



                 .------------------------------------------------.
                 | Starting in Static Property Section (ABACUS) - |
                 `------------------------------------------------'



@ WARNING. Analytical molecular Hessian is approximate because PEQM contributions are neglected.

 
     Date and time (Linux)  : Sun Mar 11 23:24:04 2018
     Host name              : foeroyar                                

 Largest deviation from tra-rot symmetry is in gradient element  1:  7.67E-07


   ***************************************************************************
   ************************ FINAL RESULTS from ABACUS ************************
   ***************************************************************************


 
     Date and time (Linux)  : Sun Mar 11 23:24:04 2018
     Host name              : foeroyar                                


                           Dipole moment gradient (au)
                           ---------------------------

                       Ex             Ey             Ez

        O    x    -0.14718294    -0.05503128    -0.01989585
        O    y    -0.05282063    -0.63638872    -0.09000077
        O    z    -0.02101865    -0.11633770    -0.18227467

        H    x     0.01228209    -0.00274774     0.15769278
        H    y     0.01300158     0.31790077     0.01191552
        H    z     0.13618141     0.03312233     0.12478885

        H    x     0.10634802     0.05955360    -0.12934473
        H    y     0.05053195     0.32420908     0.05103076
        H    z    -0.11358114     0.06300431     0.14107272





                            +-------------------------+
                            ! APT Population Analysis !
                            +-------------------------+


      [ Reference : J. Cioslowski, J.Am.Chem.Soc. 111 (1989) 8333 ]

                            O        -0.321949
                            H         0.151657
                            H         0.190543


INFO: tra-rot projection in vibrational analysis changed to          F


   ****************************************************************************
   *************** ABACUS - ROTATIONAL AND VIBRATIONAL ANALYSIS ***************
   ****************************************************************************


 Norm of (unprojected) molecular gradient (au) :     0.00000000


 Conversion factors used:

    Hartree to (cm)-1      : 219474.62934
    a.m.u.  to a.u.        :   1822.88848
    Bohr    to Angstrom    :  0.529177211
    a.u.    to A**4amu-1   :   142.943572
    a.u.    to km (mol)-1  :      974.864


 Vibrational analysis for parent molecule only.


                         Isotopic Molecule No. 1
                         ======================= 


                                 Isotopic Masses
                                 ---------------

                           O          15.994915
                           H           1.007825
                           H           1.007825

                       Total mass:    18.010565 amu
                       Natural abundance:  99.730 %

 Center-of-mass coordinates (a.u.):   -0.118829   -0.267980    0.577493


 Principal moments of inertia (u*A**2) and principal axes
 --------------------------------------------------------

   IA       0.696484         -0.101681   -0.224762    0.969094
   IB       1.177884          0.988461   -0.132766    0.072920
   IC       1.874368          0.112273    0.965327    0.235668


 Rotational constants
 --------------------

@    The molecule is planar.

               A                   B                   C

         725614.8487         429056.7765         269626.4125 MHz
           24.203906           14.311794            8.993769 cm-1

 The number of translational and rotational coordinates in VIBNOR 0
 is not equal to 5 or 6.


  Vibrational Frequencies and IR Intensities
  ------------------------------------------

  mode   irrep        frequency             IR intensity
  ============================================================
                  cm-1       hartrees     km/mol   (D/A)**2/amu
  ------------------------------------------------------------
   1      A      4391.49    0.020009      1.508   0.0357
   2      A      4150.27    0.018910      9.292   0.2199
   3      A      2174.30    0.009907     32.140   0.7606
   4      A       635.46    0.002895    175.611   4.1560
   5      A       484.04    0.002205     72.316   1.7114
   6      A       434.52    0.001980     58.350   1.3809
   7      A       209.83    0.000956      3.495   0.0827
   8      A       174.93    0.000797      1.532   0.0363
   9      A        64.15    0.000292      4.621   0.1094



  Normal Coordinates (bohrs*amu**(1/2)):
  --------------------------------------


                1  4391     2  4150     3  2174     4   635     5   484 
  ----------------------------------------------------------------------

    O      x    0.013619   -0.049704   -0.065113    0.009792    0.001066
    O      y    0.013837    0.008970    0.008847   -0.073627   -0.024014
    O      z   -0.062991   -0.012890   -0.004590    0.011757   -0.080643

    H      x   -0.540379    0.394220    0.463062   -0.060622    0.493947
    H      y   -0.063467    0.058038   -0.159956    0.209255   -0.178269
    H      z    0.536723   -0.440249    0.452451   -0.026357    0.405246

    H      x    0.322555    0.386410    0.575774    0.229927   -0.544530
    H      y   -0.145023   -0.193594    0.026830    0.880824    0.152704
    H      z    0.462706    0.640097   -0.382640    0.160035    0.346460


                6   435     7   210     8   175     9    64 
  ----------------------------------------------------------

    O      x   -0.076731    0.043102    0.218317    0.010922
    O      y   -0.076717    0.134087   -0.054763    0.171196
    O      z   -0.002316    0.172557   -0.028113   -0.145436

    H      x    0.037696    0.142250    0.245722    0.026383
    H      y    0.827367    0.210771    0.192984    0.342756
    H      z    0.221016    0.280950    0.028160   -0.110183

    H      x   -0.104902   -0.063223    0.206778    0.015087
    H      y   -0.241501    0.077205   -0.177175    0.195352
    H      z   -0.034176    0.226474   -0.055634   -0.144231




  Dipole Gradient in Normal Coordinate Basis (D/(A*amu**(1/2)))
  -------------------------------------------------------------


  mode           dMA/dQi        dMB/dQi        dMC/dQi
  ----------------------------------------------------
   1            0.185588      -0.008629       0.034228
   2           -0.425738       0.009066       0.196408
   3            0.866904      -0.094957       0.008780
   4            0.246753       2.017883       0.152354
   5           -0.133539       0.090814       1.298199
   6            0.178847       1.137660       0.233724
   7           -0.013695       0.017652       0.286709
   8            0.000333       0.187717       0.031874
   9            0.048224       0.325455      -0.033384



                              Total Molecular Energy
                              ----------------------

             electronic     vibrational           total    energy 

             -75.156693        0.028976      -75.127717    Hartrees
           -16494987.31         6359.50    -16488627.81    cm-1
             -197323.87           76.08      -197247.79    kJ/mol
              -47161.54           18.18       -47143.35    kcal/mol


                          Molecular Partition Functions
                          -----------------------------

 Qtran is evaluated per mol at 1 atm. pressure.
 Qrot does not include symmetry numbers.
 Qvib does not include zero point energies
 (i.e., energy scale has vibrational ground state as zero).


 Temp.(K)  Translational     Rotational    Vibrational      Total

    50.00     3.4600D+04           7.07         1.1982   2.929562D+05
   100.00     1.9573D+05          19.19         1.9034   7.150778D+06
   200.00     1.1072D+06          53.17         5.2896   3.113774D+08
   273.15     2.4136D+06          84.38        10.8365   2.206855D+09
   298.15     3.0043D+06          96.10        13.6999   3.955192D+09
   300.00     3.0511D+06          96.98        13.9364   4.123914D+09
   400.00     6.2633D+06         148.79        33.5083   3.122658D+10
   500.00     1.0942D+07         207.49        73.6547   1.672185D+11
   600.00     1.7260D+07         272.37       149.7705   7.040698D+11
   700.00     2.5375D+07         342.87       285.2935   2.482135D+12
   800.00     3.5431D+07         418.59       514.6414   7.632616D+12
   900.00     4.7562D+07         499.18       886.9338   2.105771D+13
  1000.00     6.1895D+07         584.37      1470.6641   5.319321D+13
  1500.00     1.7056D+08        1072.02     12165.4446   2.224403D+15
  2000.00     3.5013D+08        1649.30     64280.4745   3.712001D+16


                                +------------------+
                                ! Polarizabilities !
                                +------------------+


 Vibrational polarizabilities calculated acc. to Rinaldi et al.,
 Chem.Phys.Lett. 128 (1986) 177-181.


                        Vibrational Polarizabilities (au)
                        ---------------------------------

                         Ex          Ey          Ez

            Ex       1.302328    6.931945   -1.040491
            Ey       6.931945   50.255092    0.392450
            Ez      -1.040491    0.392450   11.125220



                   Vibrational Polarizabilities (angstroms**3)
                   -------------------------------------------

                         Ex          Ey          Ez

            Ex       0.192985    1.027208   -0.154185
            Ey       1.027208    7.447036    0.058155
            Ez      -0.154185    0.058155    1.648588



                   Vibrational Polarizabilities (angstroms**3)
                   -------------------------------------------

               (Along principal axes of moments of inertia)

                         EA          EB          EC

            EA       1.978467   -0.050005   -1.329969
            EB      -0.050005    0.035629    0.025249
            EC      -1.329969    0.025249    7.274513



 Vibrational mean polarization :    7.8195 cm**3 mol**-1
  Total CPU  time used in ABACUS:   0.02 seconds
  Total wall time used in ABACUS:   0.02 seconds


                   .-------------------------------------------.
                   | End of Static Property Section (ABACUS) - |
                   `-------------------------------------------'

  Total CPU  time used in DALTON:  31.67 seconds
  Total wall time used in DALTON:  31.75 seconds

 
     Date and time (Linux)  : Sun Mar 11 23:24:04 2018
     Host name              : foeroyar                                
