

     ************************************************************************
     *************** Dalton - An Electronic Structure Program ***************
     ************************************************************************

    This is output from DALTON 2016.alpha
   ----------------------------------------------------------------------------
    NOTE:
     
    Dalton is an experimental code for the evaluation of molecular
    properties using (MC)SCF, DFT, CI, and CC wave functions.
    The authors accept no responsibility for the performance of
    the code or for the correctness of the results.
     
    The code (in whole or part) is provided under a licence and
    is not to be reproduced for further distribution without
    the written permission of the authors or their representatives.
     
    See the home page "http://daltonprogram.org" for further information.
     
    If results obtained with this code are published,
    the appropriate citations would be both of:
     
       K. Aidas, C. Angeli, K. L. Bak, V. Bakken, R. Bast,
       L. Boman, O. Christiansen, R. Cimiraglia, S. Coriani,
       J. Cukras, P. Dahle, E. K. Dalskov, U. Ekstroem,
       T. Enevoldsen, J. J. Eriksen, P. Ettenhuber, B. Fernandez,
       L. Ferrighi, H. Fliegl, L. Frediani, K. Hald, A. Halkier,
       C. Haettig, H. Heiberg, T. Helgaker, A. C. Hennum,
       H. Hettema, E. Hjertenaes, S. Hoest, I.-M. Hoeyvik,
       M. F. Iozzi, B. Jansik, H. J. Aa. Jensen, D. Jonsson,
       P. Joergensen, M. Kaminski, J. Kauczor, S. Kirpekar,
       T. Kjaergaard, W. Klopper, S. Knecht, R. Kobayashi, H. Koch,
       J. Kongsted, A. Krapp, K. Kristensen, A. Ligabue,
       O. B. Lutnaes, J. I. Melo, K. V. Mikkelsen, R. H. Myhre,
       C. Neiss, C. B. Nielsen, P. Norman, J. Olsen,
       J. M. H. Olsen, A. Osted, M. J. Packer, F. Pawlowski,
       T. B. Pedersen, P. F. Provasi, S. Reine, Z. Rinkevicius,
       T. A. Ruden, K. Ruud, V. Rybkin, P. Salek, C. C. M. Samson,
       A. Sanchez de Meras, T. Saue, S. P. A. Sauer,
       B. Schimmelpfennig, K. Sneskov, A. H. Steindal,
       K. O. Sylvester-Hvid, P. R. Taylor, A. M. Teale,
       E. I. Tellgren, D. P. Tew, A. J. Thorvaldsen, L. Thoegersen,
       O. Vahtras, M. A. Watson, D. J. D. Wilson, M. Ziolkowski
       and H. Agren,
       "The Dalton quantum chemistry program system",
       WIREs Comput. Mol. Sci. 2013. (doi: 10.1002/wcms.1172)
    
    and
    
       Dalton, a Molecular Electronic Structure Program,
       Release DALTON2015.alpha (2015), see http://daltonprogram.org
   ----------------------------------------------------------------------------

    Authors in alphabetical order (major contribution(s) in parenthesis):

  Kestutis Aidas,           Vilnius University,           Lithuania   (QM/MM)
  Celestino Angeli,         University of Ferrara,        Italy       (NEVPT2)
  Keld L. Bak,              UNI-C,                        Denmark     (AOSOPPA, non-adiabatic coupling, magnetic properties)
  Vebjoern Bakken,          University of Oslo,           Norway      (DALTON; geometry optimizer, symmetry detection)
  Radovan Bast,             KTH Stockholm,                Sweden      (DALTON installation and execution frameworks)
  Pablo Baudin,             University of Valencia,       Spain       (Cholesky excitation energies)
  Linus Boman,              NTNU,                         Norway      (Cholesky decomposition and subsystems)
  Ove Christiansen,         Aarhus University,            Denmark     (CC module)
  Renzo Cimiraglia,         University of Ferrara,        Italy       (NEVPT2)
  Sonia Coriani,            University of Trieste,        Italy       (CC module, MCD in RESPONS)
  Janusz Cukras,            University of Trieste,        Italy       (MChD in RESPONS)
  Paal Dahle,               University of Oslo,           Norway      (Parallelization)
  Erik K. Dalskov,          UNI-C,                        Denmark     (SOPPA)
  Thomas Enevoldsen,        Univ. of Southern Denmark,    Denmark     (SOPPA)
  Janus J. Eriksen,         Aarhus University,            Denmark     (Polarizable embedding model, TDA)
  Berta Fernandez,          U. of Santiago de Compostela, Spain       (doublet spin, ESR in RESPONS)
  Lara Ferrighi,            Aarhus University,            Denmark     (PCM Cubic response)
  Heike Fliegl,             University of Oslo,           Norway      (CCSD(R12))
  Luca Frediani,            UiT The Arctic U. of Norway,  Norway      (PCM)
  Bin Gao,                  UiT The Arctic U. of Norway,  Norway      (Gen1Int library)
  Christof Haettig,         Ruhr-University Bochum,       Germany     (CC module)
  Kasper Hald,              Aarhus University,            Denmark     (CC module)
  Asger Halkier,            Aarhus University,            Denmark     (CC module)
  Erik D. Hedegaard,        Univ. of Southern Denmark,    Denmark     (Polarizable embedding model, QM/MM)
  Hanne Heiberg,            University of Oslo,           Norway      (geometry analysis, selected one-electron integrals)
  Trygve Helgaker,          University of Oslo,           Norway      (DALTON; ABACUS, ERI, DFT modules, London, and much more)
  Alf Christian Hennum,     University of Oslo,           Norway      (Parity violation)
  Hinne Hettema,            University of Auckland,       New Zealand (quadratic response in RESPONS; SIRIUS supersymmetry)
  Eirik Hjertenaes,         NTNU,                         Norway      (Cholesky decomposition)
  Maria Francesca Iozzi,    University of Oslo,           Norway      (RPA)
  Brano Jansik              Technical Univ. of Ostrava    Czech Rep.  (DFT cubic response)
  Hans Joergen Aa. Jensen,  Univ. of Southern Denmark,    Denmark     (DALTON; SIRIUS, RESPONS, ABACUS modules, London, and much more)
  Dan Jonsson,              UiT The Arctic U. of Norway,  Norway      (cubic response in RESPONS module)
  Poul Joergensen,          Aarhus University,            Denmark     (RESPONS, ABACUS, and CC modules)
  Maciej Kaminski,          University of Warsaw,         Poland      (CPPh in RESPONS)
  Joanna Kauczor,           Linkoeping University,        Sweden      (Complex polarization propagator (CPP) module)
  Sheela Kirpekar,          Univ. of Southern Denmark,    Denmark     (Mass-velocity & Darwin integrals)
  Wim Klopper,              KIT Karlsruhe,                Germany     (R12 code in CC, SIRIUS, and ABACUS modules)
  Stefan Knecht,            ETH Zurich,                   Switzerland (Parallel CI and MCSCF)
  Rika Kobayashi,           Australian National Univ.,    Australia   (DIIS in CC, London in MCSCF)
  Henrik Koch,              NTNU,                         Norway      (CC module, Cholesky decomposition)
  Jacob Kongsted,           Univ. of Southern Denmark,    Denmark     (Polarizable embedding model, QM/MM)
  Andrea Ligabue,           University of Modena,         Italy       (CTOCD, AOSOPPA)
  Nanna H. List             Univ. of Southern Denmark,    Denmark     (Polarizable embedding model)
  Ola B. Lutnaes,           University of Oslo,           Norway      (DFT Hessian)
  Juan I. Melo,             University of Buenos Aires,   Argentina   (LRESC, Relativistic Effects on NMR Shieldings)
  Kurt V. Mikkelsen,        University of Copenhagen,     Denmark     (MC-SCRF and QM/MM)
  Rolf H. Myhre,            NTNU,                         Norway      (Cholesky, subsystems and ECC2)
  Christian Neiss,          Univ. Erlangen-Nuernberg,     Germany     (CCSD(R12))
  Christian B. Nielsen,     University of Copenhagen,     Denmark     (QM/MM)
  Patrick Norman,           Linkoeping University,        Sweden      (Cubic response and complex response in RESPONS)
  Jeppe Olsen,              Aarhus University,            Denmark     (SIRIUS CI/density modules)
  Jogvan Magnus H. Olsen,   Univ. of Southern Denmark,    Denmark     (Polarizable embedding model, QM/MM)
  Anders Osted,             Copenhagen University,        Denmark     (QM/MM)
  Martin J. Packer,         University of Sheffield,      UK          (SOPPA)
  Filip Pawlowski,          Kazimierz Wielki University,  Poland      (CC3)
  Morten N. Pedersen,       Univ. of Southern Denmark,    Denmark     (Polarizable embedding model)
  Thomas B. Pedersen,       University of Oslo,           Norway      (Cholesky decomposition)
  Patricio F. Provasi,      University of Northeastern,   Argentina   (Analysis of coupling constants in localized orbitals)
  Zilvinas Rinkevicius,     KTH Stockholm,                Sweden      (open-shell DFT, ESR)
  Elias Rudberg,            KTH Stockholm,                Sweden      (DFT grid and basis info)
  Torgeir A. Ruden,         University of Oslo,           Norway      (Numerical derivatives in ABACUS)
  Kenneth Ruud,             UiT The Arctic U. of Norway,  Norway      (DALTON; ABACUS magnetic properties and much more)
  Pawel Salek,              KTH Stockholm,                Sweden      (DALTON; DFT code)
  Claire C. M. Samson       University of Karlsruhe       Germany     (Boys localization, r12 integrals in ERI)
  Alfredo Sanchez de Meras, University of Valencia,       Spain       (CC module, Cholesky decomposition)
  Trond Saue,               Paul Sabatier University,     France      (direct Fock matrix construction)
  Stephan P. A. Sauer,      University of Copenhagen,     Denmark     (SOPPA(CCSD), SOPPA prop., AOSOPPA, vibrational g-factors)
  Bernd Schimmelpfennig,    Forschungszentrum Karlsruhe,  Germany     (AMFI module)
  Kristian Sneskov,         Aarhus University,            Denmark     (Polarizable embedding model, QM/MM)
  Arnfinn H. Steindal,      UiT The Arctic U. of Norway,  Norway      (parallel QM/MM, Polarizable embedding model)
  Casper Steinmann,         Univ. of Southern Denmark,    Denmark     (QFIT, Polarizable embedding model)
  K. O. Sylvester-Hvid,     University of Copenhagen,     Denmark     (MC-SCRF)
  Peter R. Taylor,          VLSCI/Univ. of Melbourne,     Australia   (Symmetry handling ABACUS, integral transformation)
  Andrew M. Teale,          University of Nottingham,     England     (DFT-AC, DFT-D)
  David P. Tew,             University of Bristol,        England     (CCSD(R12))
  Olav Vahtras,             KTH Stockholm,                Sweden      (triplet response, spin-orbit, ESR, TDDFT, open-shell DFT)
  David J. Wilson,          La Trobe University,          Australia   (DFT Hessian and DFT magnetizabilities)
  Hans Agren,               KTH Stockholm,                Sweden      (SIRIUS module, RESPONS, MC-SCRF solvation model)
 --------------------------------------------------------------------------------

     Date and time (Linux)  : Mon Feb 23 19:08:37 2015
     Host name              : foeroyar                                

 * Work memory size             :    64000000 =  488.28 megabytes.

 * Directories for basis set searches:
   1) /home/magnus/Projects/dalton_devel/dalton/build_pelib/test/pehf_geoopt
   2) /home/magnus/Projects/dalton_devel/dalton/build_pelib/basis


Compilation information
-----------------------

 Who compiled             | magnus
 Host                     | foeroyar
 System                   | Linux-3.18.6-200.fc21.x86_64
 CMake generator          | Unix Makefiles
 Processor                | x86_64
 64-bit integers          | OFF
 MPI                      | ON
 Fortran compiler         | /usr/local/bin/mpif90
 Fortran compiler version | GNU Fortran (GCC) 4.9.2 20150212 (Red Hat 4.9.2-6)
 C compiler               | /usr/local/bin/mpicc
 C compiler version       | gcc (GCC) 4.9.2 20150212 (Red Hat 4.9.2-6)
 C++ compiler             | /usr/local/bin/mpicxx
 C++ compiler version     | unknown
 BLAS                     | /lib64/libblas.so
 LAPACK                   | /lib64/liblapack.so
 Static linking           | OFF
 Last Git revision        | 5238537d2eab9c23858149b88466e4eda8e39bfc
 Git branch               | [32mpe/develop[m
 Configuration time       | 2015-02-23 15:06:18.814013

 * Sequential calculation.


   Content of the .dal input file
 ----------------------------------

**DALTON                                          
.OPTIMIZE                                         
.PEQM                                             
*OPTIMIZE                                         
.INITHE                                           
.MAX IT                                           
50                                                
*PEQM                                             
.LJ                                               
3                                                 
1.76820000    0.15210000                          
0.00000000    0.00000000                          
0.00000000    0.00000000                          
**WAVE FUNCTIONS                                  
.HF                                               
**END OF                                          


   Content of the .mol file
 ----------------------------

BASIS                                                                          
STO-3G                                                                         
Generated by PEAS 0.1.0                                                        
Some informative stuff...                                                      
AtomTypes=2 Charge=0 Angstrom NoSymmetry                                       
Charge=8.0 Atoms=1                                                             
O   -0.065000    0.011000    0.000000                                          
Charge=1.0 Atoms=2                                                             
H    0.574000    0.282000   -0.659000                                          
H    0.451000   -0.462000    0.653000                                          
                                                                               


       *******************************************************************
       *********** Output from DALTON general input processing ***********
       *******************************************************************

 --------------------------------------------------------------------------------
   Overall default print level:    0
   Print level for DALTON.STAT:    1

    "Old" integral transformation used (limited to max 255 basis functions)
    Environment is modeled using polarizable embedding scheme (PE library)
 --------------------------------------------------------------------------------


 Chosen parameters for *OPTIMI :
 -------------------------------

 Default 1st order method will be used:   BFGS update.
 Optimization will be performed in Cartesian coordinates.
 Initial Hessian will be calculated.
 .INITEV has no effect when initial Hessian is calculated.
 Keyword ignored.

 Maximum # of iterations:        50

 Trust region method will be used to control step (default).

 Convergence threshold for gradient set to :      1.00D-04
 Convergence threshold for energy set to   :      1.00D-06
 Convergence threshold for step set to     :      1.00D-04
 Number of convergence criteria set to     :   2


              >>>>>>>>>>>>>>>>>>>>>>>>>>>>>>>>>>>>>>>>>>>>>>>>>>>>>
              >>>>>>>>>> 1st Order Geometry Optimization >>>>>>>>>>
              >>>>>>>>>>>>>>>>>>>>>>>>>>>>>>>>>>>>>>>>>>>>>>>>>>>>>


 Reading .mol file to determine number of atoms for parallel runs.

  Reading potential input file for polarizable embedding calculation

    .------------------------------------------------.
    | Information from polarizable embedding library |
    `------------------------------------------------´

      Number of classical sites:     42

      Multipole moments upto 2nd order.

      Dipole-dipole polarizabilities.

      Iterative solver for induced moments will be used
      with convergence threshold: 1.0E-08


   ****************************************************************************
   *************** Output of molecule and basis set information ***************
   ****************************************************************************


    The two title cards from your ".mol" input:
    ------------------------------------------------------------------------
 1: Generated by PEAS 0.1.0                                                 
 2: Some informative stuff...                                               
    ------------------------------------------------------------------------

  Coordinates are entered in Angstrom and converted to atomic units.
          - Conversion factor : 1 bohr = 0.52917721 A

  Atomic type no.    1
  --------------------
  Nuclear charge:   8.00000
  Number of symmetry independent centers:    1
  Number of basis sets to read;    2
  Basis set file used for this atomic type with Z =   8 :
     "/home/magnus/Projects/dalton_devel/dalton/build_pelib/basis/STO-3G"

  Atomic type no.    2
  --------------------
  Nuclear charge:   1.00000
  Number of symmetry independent centers:    2
  Number of basis sets to read;    2
  Basis set file used for this atomic type with Z =   1 :
     "/home/magnus/Projects/dalton_devel/dalton/build_pelib/basis/STO-3G"


                         SYMGRP: Point group information
                         -------------------------------

@    Point group: C1 


                                 Isotopic Masses
                                 ---------------

                           O          15.994915
                           H           1.007825
                           H           1.007825

                       Total mass:    18.010565 amu
                       Natural abundance:  99.730 %

 Center-of-mass coordinates (a.u.):   -0.000698   -0.000573   -0.000634


  Atoms and basis sets
  --------------------

  Number of atom types :    2
  Total number of atoms:    3

  Basis set used is "STO-3G" from the basis set library.

  label    atoms   charge   prim   cont     basis
  ----------------------------------------------------------------------
  O           1    8.0000    15     5      [6s3p|2s1p]                                        
  H           2    1.0000     3     1      [3s|1s]                                            
  ----------------------------------------------------------------------
  total:      3   10.0000    21     7
  ----------------------------------------------------------------------

  Threshold for neglecting AO integrals:  1.00D-12


  Cartesian Coordinates (a.u.)
  ----------------------------

  Total number of coordinates:    9
  O       :     1  x  -0.1228321981    2  y   0.0207869874    3  z   0.0000000000
  H       :     4  x   1.0847027957    5  y   0.5329027672    6  z  -1.2453295164
  H       :     7  x   0.8522664824    8  y  -0.8730534697    9  z   1.2339911596


   Interatomic separations (in Angstrom):
   --------------------------------------

            O           H           H     
            ------      ------      ------
 O     :    0.000000
 H     :    0.957101    0.000000
 H     :    0.957285    1.513278    0.000000


  Max    interatomic separation is    1.5133 Angstrom (    2.8597 Bohr)
  between atoms    3 and    2, "H     " and "H     ".

  Min HX interatomic separation is    0.9571 Angstrom (    1.8087 Bohr)


  Bond distances (Angstrom):
  --------------------------

                  atom 1     atom 2       distance
                  ------     ------       --------
  bond distance:  H          O            0.957101
  bond distance:  H          O            0.957285


  Bond angles (degrees):
  ----------------------

                  atom 1     atom 2     atom 3         angle
                  ------     ------     ------         -----
  bond angle:     H          O          H            104.460




 Principal moments of inertia (u*A**2) and principal axes
 --------------------------------------------------------

   IA       0.615276         -0.081058   -0.491687    0.866991
   IB       1.153964          0.985070   -0.172066   -0.005484
   IC       1.769240          0.151877    0.853602    0.498293


 Rotational constants
 --------------------

@    The molecule is planar.

               A                   B                   C

         821386.2833         437950.3289         285647.5302 MHz
           27.398497           14.608451            9.528176 cm-1


@  Nuclear repulsion energy :    9.195173291795 Hartree


                     .---------------------------------------.
                     | Starting in Integral Section (HERMIT) |
                     `---------------------------------------'



 ***************************************************************************************
 ****************** Output from **INTEGRALS input processing (HERMIT) ******************
 ***************************************************************************************


 - Using defaults, no **INTEGRALS input found

 Default print level:        1

 * Nuclear model: Point charge

 Calculation of one- and two-electron Hamiltonian integrals.

 Center of mass  (bohr):     -0.000697618623     -0.000573346010     -0.000634465348
 Operator center (bohr):      0.000000000000      0.000000000000      0.000000000000
 Gauge origin    (bohr):      0.000000000000      0.000000000000      0.000000000000
 Dipole origin   (bohr):      0.000000000000      0.000000000000      0.000000000000


     ************************************************************************
     ************************** Output from HERINT **************************
     ************************************************************************


 Threshold for neglecting two-electron integrals:  1.00D-12
 HERMIT - Number of two-electron integrals written:         319 ( 78.6% )
 HERMIT - Megabytes written:                              0.007

 >>>> Total CPU  time used in HERMIT:   0.01 seconds
 >>>> Total wall time used in HERMIT:   0.01 seconds


                        .----------------------------------.
                        | End of Integral Section (HERMIT) |
                        `----------------------------------'



                   .--------------------------------------------.
                   | Starting in Wave Function Section (SIRIUS) |
                   `--------------------------------------------'


 *** Output from Huckel module :

     Using EWMO model:          T
     Using EHT  model:          F
     Number of Huckel orbitals each symmetry:    7

 EWMO - Energy Weighted Maximum Overlap - is a Huckel type method,
        which normally is better than Extended Huckel Theory.
 Reference: Linderberg and Ohrn, Propagators in Quantum Chemistry (Wiley, 1973)

 Huckel EWMO eigenvalues for symmetry :  1
          -20.684969      -1.611753      -0.778136      -0.688460      -0.616200
           -0.232245      -0.168138

 **********************************************************************
 *SIRIUS* a direct, restricted step, second order MCSCF program       *
 **********************************************************************

 
     Date and time (Linux)  : Mon Feb 23 19:08:37 2015
     Host name              : foeroyar                                

 Title lines from ".mol" input file:
     Generated by PEAS 0.1.0                                                 
     Some informative stuff...                                               

 Print level on unit LUPRI =   2 is   0
 Print level on unit LUW4  =   2 is   5

@    Restricted, closed shell Hartree-Fock calculation.

 Initial molecular orbitals are obtained according to
 ".MOSTART EWMO  " input option

@    QM part is embedded in an environment :

@         Model: PE

     Wave function specification
     ============================

     Wave function environment is modeled using the
     polarizable embedding model (PE library).

@    Wave function type        >>> PE-HF <<<
@    Number of closed shell electrons          10
@    Number of electrons in active shells       0
@    Total charge of the molecule               0

@    Spin multiplicity and 2 M_S                1         0
@    Total number of symmetries                 1 (point group: C1 )
@    Reference state symmetry                   1 (irrep name : A  )

     Orbital specifications
     ======================
@    Abelian symmetry species          All |    1
@                                          |  A  
                                       --- |  ---
@    Occupied SCF orbitals               5 |    5
@    Secondary orbitals                  2 |    2
@    Total number of orbitals            7 |    7
@    Number of basis functions           7 |    7

     Optimization information
     ========================
@    Number of configurations                 1
@    Number of orbital rotations             10
     ------------------------------------------
@    Total number of variables               11

     Maximum number of Fock   iterations      0
     Maximum number of DIIS   iterations     60
     Maximum number of QC-SCF iterations     60
     Threshold for SCF convergence     1.00D-05


 ***********************************************
 ***** DIIS acceleration of SCF iterations *****
 ***********************************************

 C1-DIIS algorithm; max error vectors =    8

 Iter      Total energy     Embedding energy      Error norm     Delta(E)
 -----------------------------------------------------------------------------
     (Precalculated two-electron integrals are transformed to P-supermatrix elements.
      Threshold for discarding integrals :  1.00D-12 )
@  1  -74.9917443679     -8.096769945772E-02    7.12574D-01   -7.50D+01
      Virial theorem: -V/T =      2.005242
@      MULPOP O      -0.45; H       0.23; H       0.23; 
 -----------------------------------------------------------------------------
@  2  -75.0304283858     -7.435876366631E-02    1.58663D-01   -3.87D-02
      Virial theorem: -V/T =      2.005111
@      MULPOP O      -0.45; H       0.23; H       0.22; 
 -----------------------------------------------------------------------------
@  3  -75.0328319119     -7.260018195548E-02    1.43649D-02   -2.40D-03
      Virial theorem: -V/T =      2.004386
@      MULPOP O      -0.45; H       0.23; H       0.22; 
 -----------------------------------------------------------------------------
@  4  -75.0328506889     -7.248464248488E-02    1.04665D-03   -1.88D-05
      Virial theorem: -V/T =      2.004293
@      MULPOP O      -0.45; H       0.24; H       0.22; 
 -----------------------------------------------------------------------------
@  5  -75.0328508882     -7.249186730701E-02    1.44265D-04   -1.99D-07
      Virial theorem: -V/T =      2.004297
@      MULPOP O      -0.45; H       0.24; H       0.22; 
 -----------------------------------------------------------------------------
@  6  -75.0328508921     -7.249396449150E-02    1.97064D-05   -3.90D-09
      Virial theorem: -V/T =      2.004297
@      MULPOP O      -0.45; H       0.24; H       0.22; 
 -----------------------------------------------------------------------------
@  7  -75.0328508922     -7.249395636206E-02    3.78603D-06   -7.09D-11

@ *** DIIS converged in   7 iterations !
@     Converged SCF energy, gradient:    -75.032850892210    3.79D-06
    - total time used in SIRFCK :              0.00 seconds


 *** SCF orbital energy analysis ***
   (incl. contribution from polarizable embedding potential)

 Number of electrons :   10
 Orbital occupations :    5

 Sym       Hartree-Fock orbital energies

1 A     -20.22346524    -1.26916844    -0.61402363    -0.47383121    -0.40033359
          0.62802781     0.75613375

    E(LUMO) :     0.62802781 au (symmetry 1)
  - E(HOMO) :    -0.40033359 au (symmetry 1)
  ------------------------------------------
    gap     :     1.02836140 au

    .--------------------------------------------------.
    | Final results from polarizable embedding library |
    `--------------------------------------------------´

        Polarizable embedding energy contributions:
       ---------------------------------------------

       Electrostatic contributions:
            Electronic                -0.141970063361
            Nuclear                    0.111046874002
            Multipole                  0.000000000000
            Total                     -0.030923189359

       Polarization contributions:
            Electronic                -0.068853746932
            Nuclear                    0.063982137188
            Multipole                 -0.044082871357
            Total                     -0.048954481101

       LJ energy contribution:
            Dispersion 6              -0.011141957974
            Repulsion 12               0.018525672071

       Total PE energy:            -0.072493956363

 >>> Writing SIRIFC interface file

 >>>> CPU and wall time for SCF :       0.309       0.309


                       .-----------------------------------.
                       | >>> Final results from SIRIUS <<< |
                       `-----------------------------------'


@    Spin multiplicity:           1
@    Spatial symmetry:            1 ( irrep  A   in C1  )
@    Total charge of molecule:    0

@    Final HF energy:             -75.032850892210                 
@    Nuclear repulsion:             9.195173291795
@    Electronic energy:           -84.155530227643
@    Embedding energy:             -0.072493956362

@    Final gradient norm:           0.000003786031

 
     Date and time (Linux)  : Mon Feb 23 19:08:37 2015
     Host name              : foeroyar                                

File label for MO orbitals:  23Feb15   FOCKDIIS

 (Only coefficients >0.0100 are printed.)

 Molecular orbitals for symmetry species 1  (A  )
 ------------------------------------------------

    Orbital         1        2        3        4        5        6        7
   1 O   :1s    -0.9941   0.2356  -0.0018   0.0935   0.0086   0.1345  -0.0048
   2 O   :1s    -0.0267  -0.8478   0.0090  -0.4909  -0.0428  -0.8960   0.0326
   3 O   :2px   -0.0042  -0.1083   0.0538   0.7720   0.2123  -0.7090   0.1006
   4 O   :2py    0.0007   0.0143   0.3206  -0.2003   0.8375   0.1434   0.4737
   5 O   :2pz   -0.0000  -0.0030  -0.5375  -0.0492   0.5011  -0.0282  -0.8479
   6 H   :1s     0.0060  -0.1488   0.4218   0.2608   0.0106   0.7759  -0.8772
   7 H   :1s     0.0060  -0.1531  -0.4312   0.2627   0.0276   0.8307   0.8185



 >>>> Total CPU  time used in SIRIUS :      0.31 seconds
 >>>> Total wall time used in SIRIUS :      0.31 seconds

 
     Date and time (Linux)  : Mon Feb 23 19:08:37 2015
     Host name              : foeroyar                                


                     .---------------------------------------.
                     | End of Wave Function Section (SIRIUS) |
                     `---------------------------------------'


     Order of analytical energy-derivatives available:   2
     This will be the default.

 Center of mass dipole origin  :   -0.000698   -0.000573   -0.000634

 Center of mass gauge origin   :   -0.000698   -0.000573   -0.000634


                 .------------------------------------------------.
                 | Starting in Static Property Section (ABACUS) - |
                 `------------------------------------------------'


 
     Date and time (Linux)  : Mon Feb 23 19:08:37 2015
     Host name              : foeroyar                                


            +---------------------------------------------------------+
            ! Gradient elements calculated directly and from symmetry !
            +---------------------------------------------------------+



        Coordinate    Direct calc.     Tra.-rot. sym.   Difference
        ----------------------------------------------------------

        O    x        0.0572960681    -0.0014935455     0.0587896137
        O    y       -0.0048274511     0.0002597254    -0.0050871765
        O    z       -0.0057807388     0.0000102999    -0.0057910386
        H    x       -0.0301372672    -0.0014098562    -0.0287274109
        H    y       -0.0111588178    -0.0131818029     0.0020229852
        H    x       -0.0250546632     0.0029034018    -0.0279580649



 >>> WARNING from TRAROT:

 Largest deviation from tra-rot symmetry is in gradient element  1:  5.88E-02


   ***************************************************************************
   ************************ FINAL RESULTS from ABACUS ************************
   ***************************************************************************


 
     Date and time (Linux)  : Mon Feb 23 19:08:38 2015
     Host name              : foeroyar                                

 WARNING: warnings have been issued, please check the output above !


                             Molecular geometry (au)
                             -----------------------

 O         -0.1228321981            0.0207869874            0.0000000000
 H          1.0847027957            0.5329027672           -1.2453295164
 H          0.8522664824           -0.8730534697            1.2339911596





                        Molecular wave function and energy
                        ----------------------------------

     Spatial symmetry   1 ( A   )
     Spin multiplicity  1
     2 * M_S            0
     State number       1
     Total charge       0

     Total energy        -75.0328508922 au (Hartrees)
                         -2041.74773400 eV
                           -196998.7196 kJ/mol
                            -47083.8240 kcal/mol


                   Scalar Breit-Pauli relativistic corrections
                   -------------------------------------------

     Darwin correction:                          0.1293614269 au
     Mass-velocity correction:                  -0.1668041728 au

     Total relativistic correction:             -0.0374427459 au (0.0499%)
     Non-relativistic + relativistic energy:   -75.0702936381 au



      (Note that these corrections are NOT included in the results below.)


                             Molecular gradient (au)
                             -----------------------

 O          0.0572960681           -0.0048274511           -0.0057807388
 H         -0.0301372672           -0.0111588178            0.0230108238
 H         -0.0250546632            0.0129220775           -0.0230211237





                              Molecular Hessian (au)
                              ----------------------

           O    x      O    y      O    z      H    x      H    y      H    z

 O    x    4.276966
 O    y   -0.643130    0.298776
 O    z   -0.214605   -0.414438    0.725952

 H    x   -2.237360    0.124845    0.460505    1.326738
 H    y    0.236657   -0.098130    0.149413   -0.043315    0.091640
 H    z    0.283573    0.178406   -0.366852   -0.334486   -0.184313    0.393732

 H    x   -2.039607    0.487085   -0.224442    0.939791   -0.189296    0.050913
 H    y    0.406473   -0.200646    0.262564   -0.099596    0.011140    0.005908
 H    z   -0.068968    0.236032   -0.359099   -0.114490    0.032440   -0.026879


           H    x      H    y      H    z

 H    x    1.113909
 H    y   -0.306877    0.189506
 H    z    0.183458   -0.268472    0.385979





                                  Dipole moment
                                  -------------

                 au               Debye          C m (/(10**-30)
              0.781277           1.985809           6.623945


                             Dipole moment components
                             ------------------------

                 au               Debye          C m (/(10**-30)

      x      0.77131094         1.96047673         6.53944646
      y     -0.12122199        -0.30811554        -1.02776281
      z     -0.02790824        -0.07093565        -0.23661587


   Units:   1 a.u. =   2.54175 Debye 
            1 a.u. =   8.47835 (10**-30) C m (SI)




   Interatomic separations (in Angstrom):
   --------------------------------------

            O           H           H     
            ------      ------      ------
 O     :    0.000000
 H     :    0.957101    0.000000
 H     :    0.957285    1.513278    0.000000


  Max    interatomic separation is    1.5133 Angstrom (    2.8597 Bohr)
  between atoms    3 and    2, "H     " and "H     ".

  Min HX interatomic separation is    0.9571 Angstrom (    1.8087 Bohr)


  Bond distances (Angstrom):
  --------------------------

                  atom 1     atom 2       distance
                  ------     ------       --------
  bond distance:  H          O            0.957101
  bond distance:  H          O            0.957285


  Bond angles (degrees):
  ----------------------

                  atom 1     atom 2     atom 3         angle
                  ------     ------     ------         -----
  bond angle:     H          O          H            104.460




 CPU time statistics for ABACUS
 ------------------------------




 >>>> Total CPU  time used in ABACUS:   0.43 seconds
 >>>> Total wall time used in ABACUS:   0.43 seconds


                   .-------------------------------------------.
                   | End of Static Property Section (ABACUS) - |
                   `-------------------------------------------'

Initial Hessian is analytical Hessian

Initial Hessian has been calculated in Cartesian coordinates.

 Predicted energy change       -0.013609390747961


  Step in diagonal representation
  -------------------------------


               Column   1     Column   2     Column   3     Column   4     Column   5     Column   6     Column   7     Column   8
       1      -0.49305494     0.04415966     0.01099248     0.01786197     0.04047567    -0.00521778     0.05218563     0.00171377

               Column   9
       1      -0.01067137
    ==== End of matrix output ====


           :::::::::::::::::::::::::::::::::::::::::::::::::::::::::::
           ::::::::::::::: Optimization Control Center :::::::::::::::
           :::::::::::::::::::::::::::::::::::::::::::::::::::::::::::



                                Next geometry (au)
                                ------------------

 O         -0.2264293827           -0.3211556913           -0.1632730979
 H          1.0673967447            0.7416901661           -1.1571178542
 H          0.8639411490           -0.7233027997            1.3804458516





                             Optimization information
                             ------------------------

 Iteration number               :       0
 End of optimization            :       F 
 Energy at this geometry is     :     -75.032851
 Norm of gradient               :       0.078908
 Norm of step                   :       0.499999
 Updated trust radius           :       0.500000
 Total effective Hessian index  :       4




 **************************************************************************************
 ****************** Output of molecule and basis set info suppressed ******************
 **************************************************************************************



                     .---------------------------------------.
                     | Starting in Integral Section (HERMIT) |
                     `---------------------------------------'



 ***************************************************************************************
 ****************** Output from **INTEGRALS input processing (HERMIT) ******************
 ***************************************************************************************


 - Using defaults, no **INTEGRALS input found

 Default print level:       -1

 * Nuclear model: Point charge

 Calculation of one- and two-electron Hamiltonian integrals.

 Center of mass  (bohr):     -0.093015855767     -0.284184684774     -0.132503549118
 Operator center (bohr):      0.000000000000      0.000000000000      0.000000000000
 Gauge origin    (bohr):      0.000000000000      0.000000000000      0.000000000000
 Dipole origin   (bohr):      0.000000000000      0.000000000000      0.000000000000

 Threshold for neglecting two-electron integrals:  1.00D-12
 HERMIT - Number of two-electron integrals written:         319 ( 78.6% )
 HERMIT - Megabytes written:                              0.007

 >>>> Total CPU  time used in HERMIT:   0.01 seconds
 >>>> Total wall time used in HERMIT:   0.01 seconds


                        .----------------------------------.
                        | End of Integral Section (HERMIT) |
                        `----------------------------------'



                   .--------------------------------------------.
                   | Starting in Wave Function Section (SIRIUS) |
                   `--------------------------------------------'


 **********************************************************************
 *SIRIUS* a direct, restricted step, second order MCSCF program       *
 **********************************************************************

 (Wave function specification suppressed here, see output above for initial geometry.)


 ***********************************************
 ***** DIIS acceleration of SCF iterations *****
 ***********************************************

 C1-DIIS algorithm; max error vectors =    8

 Iter      Total energy     Embedding energy      Error norm     Delta(E)
 -----------------------------------------------------------------------------
     (Precalculated two-electron integrals are transformed to P-supermatrix elements.
      Threshold for discarding integrals :  1.00D-12 )
@  1  -74.9950442200     -7.441097964386E-02    3.85902D-01    3.78D-02
      Virial theorem: -V/T =      2.003769
@      MULPOP O      -0.46; H       0.24; H       0.22; 
 -----------------------------------------------------------------------------
@  2  -75.0218618839     -7.046698019587E-02    1.75033D-01   -2.68D-02
      Virial theorem: -V/T =      2.005905
@      MULPOP O      -0.39; H       0.21; H       0.19; 
 -----------------------------------------------------------------------------
@  3  -75.0291669905     -6.924669360758E-02    3.28346D-02   -7.31D-03
      Virial theorem: -V/T =      2.006109
@      MULPOP O      -0.39; H       0.20; H       0.18; 
 -----------------------------------------------------------------------------
@  4  -75.0294307989     -6.916836772810E-02    2.72699D-03   -2.64D-04
      Virial theorem: -V/T =      2.006046
@      MULPOP O      -0.39; H       0.20; H       0.18; 
 -----------------------------------------------------------------------------
@  5  -75.0294322560     -6.920262579520E-02    5.09081D-04   -1.46D-06
      Virial theorem: -V/T =      2.006050
@      MULPOP O      -0.39; H       0.20; H       0.18; 
 -----------------------------------------------------------------------------
@  6  -75.0294322965     -6.919267868357E-02    1.55615D-04   -4.05D-08
      Virial theorem: -V/T =      2.006056
@      MULPOP O      -0.39; H       0.20; H       0.18; 
 -----------------------------------------------------------------------------
@  7  -75.0294322988     -6.919651606559E-02    2.18092D-05   -2.40D-09
      Virial theorem: -V/T =      2.006054
@      MULPOP O      -0.39; H       0.20; H       0.18; 
 -----------------------------------------------------------------------------
@  8  -75.0294322989     -6.919665432856E-02    2.60123D-06   -7.64D-11

@ *** DIIS converged in   8 iterations !
@     Converged SCF energy, gradient:    -75.029432298924    2.60D-06
    - total time used in SIRFCK :              0.00 seconds


 *** SCF orbital energy analysis ***
   (incl. contribution from polarizable embedding potential)

 Number of electrons :   10
 Orbital occupations :    5

 Sym       Hartree-Fock orbital energies

1 A     -20.23098076    -1.24008286    -0.56561528    -0.46499727    -0.39473336
          0.57404878     0.66677058

    E(LUMO) :     0.57404878 au (symmetry 1)
  - E(HOMO) :    -0.39473336 au (symmetry 1)
  ------------------------------------------
    gap     :     0.96878214 au

    .--------------------------------------------------.
    | Final results from polarizable embedding library |
    `--------------------------------------------------´

        Polarizable embedding energy contributions:
       ---------------------------------------------

       Electrostatic contributions:
            Electronic                -0.135350097464
            Nuclear                    0.107827402320
            Multipole                  0.000000000000
            Total                     -0.027522695143

       Polarization contributions:
            Electronic                -0.046442124959
            Nuclear                    0.042948121318
            Multipole                 -0.043713833288
            Total                     -0.047207836929

       LJ energy contribution:
            Dispersion 6              -0.010499737056
            Repulsion 12               0.016033614800

       Total PE energy:            -0.069196654328

 >>> Writing SIRIFC interface file

 >>>> CPU and wall time for SCF :       0.312       0.311


                       .-----------------------------------.
                       | >>> Final results from SIRIUS <<< |
                       `-----------------------------------'


@    Spin multiplicity:           1
@    Spatial symmetry:            1 ( irrep  A   in C1  )
@    Total charge of molecule:    0

@    Final HF energy:             -75.029432298924                 
@    Nuclear repulsion:             8.589247191616
@    Electronic energy:           -83.549482836211
@    Embedding energy:             -0.069196654329

@    Final gradient norm:           0.000002601233

 
     Date and time (Linux)  : Mon Feb 23 19:08:38 2015
     Host name              : foeroyar                                



 >>>> Total CPU  time used in SIRIUS :      0.31 seconds
 >>>> Total wall time used in SIRIUS :      0.31 seconds

 
     Date and time (Linux)  : Mon Feb 23 19:08:38 2015
     Host name              : foeroyar                                


                     .---------------------------------------.
                     | End of Wave Function Section (SIRIUS) |
                     `---------------------------------------'


 Step rejected because ratio between
        actual energy change :    0.00341859
 and predicted energy change :   -0.01360939
                          is :         -0.25
 Minimum for quadratic model :     0.369676
 Norm of new step            :     0.184838


 **************************************************************************************
 ****************** Output of molecule and basis set info suppressed ******************
 **************************************************************************************



                     .---------------------------------------.
                     | Starting in Integral Section (HERMIT) |
                     `---------------------------------------'



 ***************************************************************************************
 ****************** Output from **INTEGRALS input processing (HERMIT) ******************
 ***************************************************************************************


 - Using defaults, no **INTEGRALS input found

 Default print level:       -1

 * Nuclear model: Point charge

 Calculation of one- and two-electron Hamiltonian integrals.

 Center of mass  (bohr):     -0.034825459839     -0.105417665354     -0.049383307304
 Operator center (bohr):      0.000000000000      0.000000000000      0.000000000000
 Gauge origin    (bohr):      0.000000000000      0.000000000000      0.000000000000
 Dipole origin   (bohr):      0.000000000000      0.000000000000      0.000000000000

 Threshold for neglecting two-electron integrals:  1.00D-12
 HERMIT - Number of two-electron integrals written:         319 ( 78.6% )
 HERMIT - Megabytes written:                              0.007

 >>>> Total CPU  time used in HERMIT:   0.01 seconds
 >>>> Total wall time used in HERMIT:   0.01 seconds


                        .----------------------------------.
                        | End of Integral Section (HERMIT) |
                        `----------------------------------'



                   .--------------------------------------------.
                   | Starting in Wave Function Section (SIRIUS) |
                   `--------------------------------------------'


 **********************************************************************
 *SIRIUS* a direct, restricted step, second order MCSCF program       *
 **********************************************************************

 (Wave function specification suppressed here, see output above for initial geometry.)


 ***********************************************
 ***** DIIS acceleration of SCF iterations *****
 ***********************************************

 C1-DIIS algorithm; max error vectors =    8

 Iter      Total energy     Embedding energy      Error norm     Delta(E)
 -----------------------------------------------------------------------------
     (Precalculated two-electron integrals are transformed to P-supermatrix elements.
      Threshold for discarding integrals :  1.00D-12 )
@  1  -75.0211271370     -6.926524619357E-02    2.49893D-01    8.31D-03
      Virial theorem: -V/T =      2.004486
@      MULPOP O      -0.40; H       0.21; H       0.19; 
 -----------------------------------------------------------------------------
@  2  -75.0317297846     -7.216244959635E-02    1.11805D-01   -1.06D-02
      Virial theorem: -V/T =      2.004325
@      MULPOP O      -0.44; H       0.23; H       0.21; 
 -----------------------------------------------------------------------------
@  3  -75.0344997607     -7.224970963587E-02    1.64974D-02   -2.77D-03
      Virial theorem: -V/T =      2.004820
@      MULPOP O      -0.43; H       0.23; H       0.21; 
 -----------------------------------------------------------------------------
@  4  -75.0345525909     -7.246590874161E-02    1.45731D-03   -5.28D-05
      Virial theorem: -V/T =      2.004733
@      MULPOP O      -0.44; H       0.23; H       0.21; 
 -----------------------------------------------------------------------------
@  5  -75.0345528401     -7.248670434344E-02    1.96757D-04   -2.49D-07
      Virial theorem: -V/T =      2.004717
@      MULPOP O      -0.44; H       0.23; H       0.21; 
 -----------------------------------------------------------------------------
@  6  -75.0345528460     -7.248356740571E-02    3.13082D-05   -5.90D-09
      Virial theorem: -V/T =      2.004717
@      MULPOP O      -0.44; H       0.23; H       0.21; 
 -----------------------------------------------------------------------------
@  7  -75.0345528462     -7.248412951455E-02    8.03630D-06   -1.69D-10

@ *** DIIS converged in   7 iterations !
@     Converged SCF energy, gradient:    -75.034552846169    8.04D-06
    - total time used in SIRFCK :              0.00 seconds


 *** SCF orbital energy analysis ***
   (incl. contribution from polarizable embedding potential)

 Number of electrons :   10
 Orbital occupations :    5

 Sym       Hartree-Fock orbital energies

1 A     -20.22332505    -1.26186690    -0.60425705    -0.46826683    -0.39859184
          0.61682938     0.73954722

    E(LUMO) :     0.61682938 au (symmetry 1)
  - E(HOMO) :    -0.39859184 au (symmetry 1)
  ------------------------------------------
    gap     :     1.01542122 au

    .--------------------------------------------------.
    | Final results from polarizable embedding library |
    `--------------------------------------------------´

        Polarizable embedding energy contributions:
       ---------------------------------------------

       Electrostatic contributions:
            Electronic                -0.139767643389
            Nuclear                    0.109345730343
            Multipole                  0.000000000000
            Total                     -0.030421913047

       Polarization contributions:
            Electronic                -0.060317921783
            Nuclear                    0.055921395428
            Multipole                 -0.043944330644
            Total                     -0.048340856998

       LJ energy contribution:
            Dispersion 6              -0.010843688568
            Repulsion 12               0.017122329101

       Total PE energy:            -0.072484129512

 >>> Writing SIRIFC interface file

 >>>> CPU and wall time for SCF :       0.280       0.280


                       .-----------------------------------.
                       | >>> Final results from SIRIUS <<< |
                       `-----------------------------------'


@    Spin multiplicity:           1
@    Spatial symmetry:            1 ( irrep  A   in C1  )
@    Total charge of molecule:    0

@    Final HF energy:             -75.034552846169                 
@    Nuclear repulsion:             9.063564803263
@    Electronic energy:           -84.025633519917
@    Embedding energy:             -0.072484129515

@    Final gradient norm:           0.000008036301

 
     Date and time (Linux)  : Mon Feb 23 19:08:38 2015
     Host name              : foeroyar                                



 >>>> Total CPU  time used in SIRIUS :      0.28 seconds
 >>>> Total wall time used in SIRIUS :      0.28 seconds

 
     Date and time (Linux)  : Mon Feb 23 19:08:38 2015
     Host name              : foeroyar                                


                     .---------------------------------------.
                     | End of Wave Function Section (SIRIUS) |
                     `---------------------------------------'


Acceptable step has been found.

     Order of analytical energy-derivatives available:   1
     This will be the default.

 Center of mass dipole origin  :   -0.034825   -0.105418   -0.049383

 Center of mass gauge origin   :   -0.034825   -0.105418   -0.049383


                 .------------------------------------------------.
                 | Starting in Static Property Section (ABACUS) - |
                 `------------------------------------------------'


 
     Date and time (Linux)  : Mon Feb 23 19:08:38 2015
     Host name              : foeroyar                                


            +---------------------------------------------------------+
            ! Gradient elements calculated directly and from symmetry !
            +---------------------------------------------------------+



        Coordinate    Direct calc.     Tra.-rot. sym.   Difference
        ----------------------------------------------------------

        O    x        0.0324171276     0.0351489562    -0.0027318286
        O    y       -0.0035204689     0.0003442588    -0.0038647277
        O    z       -0.0033973380     0.0025462990    -0.0059436370
        H    x       -0.0172298004    -0.0188117153     0.0015819149
        H    y       -0.0061051782    -0.0066750812     0.0005699030
        H    y        0.0041274460     0.0063308224    -0.0022033765



 >>> WARNING from TRAROT:

 Largest deviation from tra-rot symmetry is in gradient element  3:  5.94E-03


   ***************************************************************************
   ************************ FINAL RESULTS from ABACUS ************************
   ***************************************************************************


 
     Date and time (Linux)  : Mon Feb 23 19:08:39 2015
     Host name              : foeroyar                                

 WARNING: warnings have been issued, please check the output above !


 CPU time statistics for ABACUS
 ------------------------------




 >>>> Total CPU  time used in ABACUS:   0.15 seconds
 >>>> Total wall time used in ABACUS:   0.15 seconds


                   .-------------------------------------------.
                   | End of Static Property Section (ABACUS) - |
                   `-------------------------------------------'


 Predicted energy change       -0.001625802445647


  Step in diagonal representation
  -------------------------------


               Column   1     Column   2     Column   3     Column   4     Column   5     Column   6     Column   7     Column   8
       1       0.09678723     0.07347420    -0.02892955     0.13141526    -0.03340369     0.00770393     0.00956661     0.00041593

               Column   9
       1      -0.00500161
    ==== End of matrix output ====


           :::::::::::::::::::::::::::::::::::::::::::::::::::::::::::
           ::::::::::::::: Optimization Control Center :::::::::::::::
           :::::::::::::::::::::::::::::::::::::::::::::::::::::::::::



                                Next geometry (au)
                                ------------------

 O         -0.1634507449           -0.1331149147           -0.0261694458
 H          1.0318148092            0.6611383794           -1.2095335181
 H          0.9468337153           -0.7035021722            1.3673270850





                             Optimization information
                             ------------------------

 Iteration number               :       1
 End of optimization            :       F 
 Energy at this geometry is     :     -75.034553
 Energy change from last geom.  :      -0.001702
 Predicted change               :      -0.013609
 Ratio, actual/predicted change :       0.125057
 Norm of gradient               :       0.044212
 Norm of step                   :       0.184838
 Updated trust radius           :       0.184838
 Total effective Hessian index  :       3




 **************************************************************************************
 ****************** Output of molecule and basis set info suppressed ******************
 **************************************************************************************



                     .---------------------------------------.
                     | Starting in Integral Section (HERMIT) |
                     `---------------------------------------'



 ***************************************************************************************
 ****************** Output from **INTEGRALS input processing (HERMIT) ******************
 ***************************************************************************************


 - Using defaults, no **INTEGRALS input found

 Default print level:       -1

 * Nuclear model: Point charge

 Calculation of one- and two-electron Hamiltonian integrals.

 Center of mass  (bohr):     -0.034438082456     -0.120587945789     -0.014410972675
 Operator center (bohr):      0.000000000000      0.000000000000      0.000000000000
 Gauge origin    (bohr):      0.000000000000      0.000000000000      0.000000000000
 Dipole origin   (bohr):      0.000000000000      0.000000000000      0.000000000000

 Threshold for neglecting two-electron integrals:  1.00D-12
 HERMIT - Number of two-electron integrals written:         319 ( 78.6% )
 HERMIT - Megabytes written:                              0.007

 >>>> Total CPU  time used in HERMIT:   0.01 seconds
 >>>> Total wall time used in HERMIT:   0.01 seconds


                        .----------------------------------.
                        | End of Integral Section (HERMIT) |
                        `----------------------------------'



                   .--------------------------------------------.
                   | Starting in Wave Function Section (SIRIUS) |
                   `--------------------------------------------'


 **********************************************************************
 *SIRIUS* a direct, restricted step, second order MCSCF program       *
 **********************************************************************

 (Wave function specification suppressed here, see output above for initial geometry.)


 ***********************************************
 ***** DIIS acceleration of SCF iterations *****
 ***********************************************

 C1-DIIS algorithm; max error vectors =    8

 Iter      Total energy     Embedding energy      Error norm     Delta(E)
 -----------------------------------------------------------------------------
     (Precalculated two-electron integrals are transformed to P-supermatrix elements.
      Threshold for discarding integrals :  1.00D-12 )
@  1  -75.0336750192     -7.340623871102E-02    9.80374D-02    8.78D-04
      Virial theorem: -V/T =      2.004949
@      MULPOP O      -0.44; H       0.23; H       0.21; 
 -----------------------------------------------------------------------------
@  2  -75.0351674156     -7.276572254797E-02    4.03844D-02   -1.49D-03
      Virial theorem: -V/T =      2.005183
@      MULPOP O      -0.43; H       0.22; H       0.20; 
 -----------------------------------------------------------------------------
@  3  -75.0355026593     -7.271442382994E-02    5.67198D-03   -3.35D-04
      Virial theorem: -V/T =      2.005143
@      MULPOP O      -0.43; H       0.22; H       0.20; 
 -----------------------------------------------------------------------------
@  4  -75.0355095675     -7.269366107815E-02    1.44909D-03   -6.91D-06
      Virial theorem: -V/T =      2.005149
@      MULPOP O      -0.43; H       0.22; H       0.20; 
 -----------------------------------------------------------------------------
@  5  -75.0355099866     -7.269536067607E-02    1.32139D-04   -4.19D-07
      Virial theorem: -V/T =      2.005148
@      MULPOP O      -0.43; H       0.22; H       0.20; 
 -----------------------------------------------------------------------------
@  6  -75.0355099896     -7.269421915466E-02    2.74596D-05   -2.96D-09
      Virial theorem: -V/T =      2.005148
@      MULPOP O      -0.43; H       0.22; H       0.20; 
 -----------------------------------------------------------------------------
@  7  -75.0355099897     -7.269429434151E-02    6.23819D-06   -1.35D-10

@ *** DIIS converged in   7 iterations !
@     Converged SCF energy, gradient:    -75.035509989717    6.24D-06
    - total time used in SIRFCK :              0.00 seconds


 *** SCF orbital energy analysis ***
   (incl. contribution from polarizable embedding potential)

 Number of electrons :   10
 Orbital occupations :    5

 Sym       Hartree-Fock orbital energies

1 A     -20.22461207    -1.25467532    -0.59350581    -0.46648110    -0.39770020
          0.60340596     0.72015995

    E(LUMO) :     0.60340596 au (symmetry 1)
  - E(HOMO) :    -0.39770020 au (symmetry 1)
  ------------------------------------------
    gap     :     1.00110616 au

    .--------------------------------------------------.
    | Final results from polarizable embedding library |
    `--------------------------------------------------´

        Polarizable embedding energy contributions:
       ---------------------------------------------

       Electrostatic contributions:
            Electronic                -0.138837765746
            Nuclear                    0.108216371669
            Multipole                  0.000000000000
            Total                     -0.030621394077

       Polarization contributions:
            Electronic                -0.058994243203
            Nuclear                    0.054731629292
            Multipole                 -0.043841978200
            Total                     -0.048104592112

       LJ energy contribution:
            Dispersion 6              -0.010787217516
            Repulsion 12               0.016818909362

       Total PE energy:            -0.072694294342

 >>> Writing SIRIFC interface file

 >>>> CPU and wall time for SCF :       0.363       0.362


                       .-----------------------------------.
                       | >>> Final results from SIRIUS <<< |
                       `-----------------------------------'


@    Spin multiplicity:           1
@    Spatial symmetry:            1 ( irrep  A   in C1  )
@    Total charge of molecule:    0

@    Final HF energy:             -75.035509989717                 
@    Nuclear repulsion:             8.919960295599
@    Electronic energy:           -83.882775990975
@    Embedding energy:             -0.072694294342

@    Final gradient norm:           0.000006238188

 
     Date and time (Linux)  : Mon Feb 23 19:08:39 2015
     Host name              : foeroyar                                



 >>>> Total CPU  time used in SIRIUS :      0.36 seconds
 >>>> Total wall time used in SIRIUS :      0.36 seconds

 
     Date and time (Linux)  : Mon Feb 23 19:08:39 2015
     Host name              : foeroyar                                


                     .---------------------------------------.
                     | End of Wave Function Section (SIRIUS) |
                     `---------------------------------------'

 Trust radius set equal to norm of step.
 Updated trust radius   0.18484

     Order of analytical energy-derivatives available:   1
     This will be the default.

 Center of mass dipole origin  :   -0.034438   -0.120588   -0.014411

 Center of mass gauge origin   :   -0.034438   -0.120588   -0.014411


                 .------------------------------------------------.
                 | Starting in Static Property Section (ABACUS) - |
                 `------------------------------------------------'


 
     Date and time (Linux)  : Mon Feb 23 19:08:39 2015
     Host name              : foeroyar                                


            +---------------------------------------------------------+
            ! Gradient elements calculated directly and from symmetry !
            +---------------------------------------------------------+



        Coordinate    Direct calc.     Tra.-rot. sym.   Difference
        ----------------------------------------------------------

        O    x        0.0067119853     0.0202036226    -0.0134916373
        O    y       -0.0010231016     0.0069171478    -0.0079402494
        O    z       -0.0124706973    -0.0076011428    -0.0048695544
        H    x       -0.0080047127    -0.0142846182     0.0062799055
        H    y       -0.0005476234    -0.0034063890     0.0028587656
        H    x       -0.0006852061    -0.0059190044     0.0052337983



 >>> WARNING from TRAROT:

 Largest deviation from tra-rot symmetry is in gradient element  1:  1.35E-02


   ***************************************************************************
   ************************ FINAL RESULTS from ABACUS ************************
   ***************************************************************************


 
     Date and time (Linux)  : Mon Feb 23 19:08:39 2015
     Host name              : foeroyar                                

 WARNING: warnings have been issued, please check the output above !


 CPU time statistics for ABACUS
 ------------------------------

 REST       00:00:01     933 %



 >>>> Total CPU  time used in ABACUS:   0.14 seconds
 >>>> Total wall time used in ABACUS:   0.14 seconds


                   .-------------------------------------------.
                   | End of Static Property Section (ABACUS) - |
                   `-------------------------------------------'


 Predicted energy change       -0.000979303809491


  Step in diagonal representation
  -------------------------------


               Column   1     Column   2     Column   3     Column   4     Column   5     Column   6     Column   7     Column   8
       1      -0.08470247     0.05473334     0.10377824     0.10975429     0.01146899     0.03134493     0.00396588     0.00701573

               Column   9
       1      -0.00029246
    ==== End of matrix output ====


           :::::::::::::::::::::::::::::::::::::::::::::::::::::::::::
           ::::::::::::::: Optimization Control Center :::::::::::::::
           :::::::::::::::::::::::::::::::::::::::::::::::::::::::::::



                                Next geometry (au)
                                ------------------

 O         -0.1545073704           -0.0499708192            0.0992215959
 H          0.9842332680            0.7182351949           -1.1650487328
 H          0.9999807898           -0.6931697387            1.3991876589





                             Optimization information
                             ------------------------

 Iteration number               :       2
 End of optimization            :       F 
 Energy at this geometry is     :     -75.035510
 Energy change from last geom.  :      -0.000957
 Predicted change               :      -0.001626
 Ratio, actual/predicted change :       0.588721
 Norm of gradient               :       0.017630
 Norm of step                   :       0.184838
 Updated trust radius           :       0.184838
 Total effective Hessian index  :       2




 **************************************************************************************
 ****************** Output of molecule and basis set info suppressed ******************
 **************************************************************************************



                     .---------------------------------------.
                     | Starting in Integral Section (HERMIT) |
                     `---------------------------------------'



 ***************************************************************************************
 ****************** Output from **INTEGRALS input processing (HERMIT) ******************
 ***************************************************************************************


 - Using defaults, no **INTEGRALS input found

 Default print level:       -1

 * Nuclear model: Point charge

 Calculation of one- and two-electron Hamiltonian integrals.

 Center of mass  (bohr):     -0.026184171548     -0.042975742997      0.101219037612
 Operator center (bohr):      0.000000000000      0.000000000000      0.000000000000
 Gauge origin    (bohr):      0.000000000000      0.000000000000      0.000000000000
 Dipole origin   (bohr):      0.000000000000      0.000000000000      0.000000000000

 Threshold for neglecting two-electron integrals:  1.00D-12
 HERMIT - Number of two-electron integrals written:         319 ( 78.6% )
 HERMIT - Megabytes written:                              0.007

 >>>> Total CPU  time used in HERMIT:   0.01 seconds
 >>>> Total wall time used in HERMIT:   0.01 seconds


                        .----------------------------------.
                        | End of Integral Section (HERMIT) |
                        `----------------------------------'



                   .--------------------------------------------.
                   | Starting in Wave Function Section (SIRIUS) |
                   `--------------------------------------------'


 **********************************************************************
 *SIRIUS* a direct, restricted step, second order MCSCF program       *
 **********************************************************************

 (Wave function specification suppressed here, see output above for initial geometry.)


 ***********************************************
 ***** DIIS acceleration of SCF iterations *****
 ***********************************************

 C1-DIIS algorithm; max error vectors =    8

 Iter      Total energy     Embedding energy      Error norm     Delta(E)
 -----------------------------------------------------------------------------
     (Precalculated two-electron integrals are transformed to P-supermatrix elements.
      Threshold for discarding integrals :  1.00D-12 )
@  1  -75.0348892304     -7.316951584149E-02    7.65710D-02    6.21D-04
      Virial theorem: -V/T =      2.005049
@      MULPOP O      -0.43; H       0.22; H       0.21; 
 -----------------------------------------------------------------------------
@  2  -75.0358348752     -7.356220783076E-02    3.21352D-02   -9.46D-04
      Virial theorem: -V/T =      2.005003
@      MULPOP O      -0.43; H       0.22; H       0.21; 
 -----------------------------------------------------------------------------
@  3  -75.0360490918     -7.359812396787E-02    3.60698D-03   -2.14D-04
      Virial theorem: -V/T =      2.005058
@      MULPOP O      -0.43; H       0.22; H       0.21; 
 -----------------------------------------------------------------------------
@  4  -75.0360515740     -7.362487502874E-02    1.01697D-03   -2.48D-06
      Virial theorem: -V/T =      2.005045
@      MULPOP O      -0.43; H       0.22; H       0.21; 
 -----------------------------------------------------------------------------
@  5  -75.0360517764     -7.362200008222E-02    1.28895D-04   -2.02D-07
      Virial theorem: -V/T =      2.005046
@      MULPOP O      -0.43; H       0.22; H       0.21; 
 -----------------------------------------------------------------------------
@  6  -75.0360517791     -7.362171564325E-02    1.38852D-05   -2.67D-09
      Virial theorem: -V/T =      2.005047
@      MULPOP O      -0.43; H       0.22; H       0.21; 
 -----------------------------------------------------------------------------
@  7  -75.0360517791     -7.362178851060E-02    4.71686D-06   -3.24D-11

@ *** DIIS converged in   7 iterations !
@     Converged SCF energy, gradient:    -75.036051779101    4.72D-06
    - total time used in SIRFCK :              0.00 seconds


 *** SCF orbital energy analysis ***
   (incl. contribution from polarizable embedding potential)

 Number of electrons :   10
 Orbital occupations :    5

 Sym       Hartree-Fock orbital energies

1 A     -20.22435400    -1.25620862    -0.59738363    -0.46790656    -0.39897052
          0.60408834     0.72422618

    E(LUMO) :     0.60408834 au (symmetry 1)
  - E(HOMO) :    -0.39897052 au (symmetry 1)
  ------------------------------------------
    gap     :     1.00305886 au

    .--------------------------------------------------.
    | Final results from polarizable embedding library |
    `--------------------------------------------------´

        Polarizable embedding energy contributions:
       ---------------------------------------------

       Electrostatic contributions:
            Electronic                -0.147624868614
            Nuclear                    0.115807342015
            Multipole                  0.000000000000
            Total                     -0.031817526599

       Polarization contributions:
            Electronic                -0.066465399748
            Nuclear                    0.061837204547
            Multipole                 -0.043872139409
            Total                     -0.048500334610

       LJ energy contribution:
            Dispersion 6              -0.011019155193
            Repulsion 12               0.017715227892

       Total PE energy:            -0.073621788511

 >>> Writing SIRIFC interface file

 >>>> CPU and wall time for SCF :       0.277       0.277


                       .-----------------------------------.
                       | >>> Final results from SIRIUS <<< |
                       `-----------------------------------'


@    Spin multiplicity:           1
@    Spatial symmetry:            1 ( irrep  A   in C1  )
@    Total charge of molecule:    0

@    Final HF energy:             -75.036051779101                 
@    Nuclear repulsion:             8.942392079281
@    Electronic energy:           -83.904822069872
@    Embedding energy:             -0.073621788511

@    Final gradient norm:           0.000004716861

 
     Date and time (Linux)  : Mon Feb 23 19:08:39 2015
     Host name              : foeroyar                                



 >>>> Total CPU  time used in SIRIUS :      0.28 seconds
 >>>> Total wall time used in SIRIUS :      0.28 seconds

 
     Date and time (Linux)  : Mon Feb 23 19:08:39 2015
     Host name              : foeroyar                                


                     .---------------------------------------.
                     | End of Wave Function Section (SIRIUS) |
                     `---------------------------------------'

 Trust radius set equal to norm of step.
 Updated trust radius   0.18484

     Order of analytical energy-derivatives available:   1
     This will be the default.

 Center of mass dipole origin  :   -0.026184   -0.042976    0.101219

 Center of mass gauge origin   :   -0.026184   -0.042976    0.101219


                 .------------------------------------------------.
                 | Starting in Static Property Section (ABACUS) - |
                 `------------------------------------------------'


 
     Date and time (Linux)  : Mon Feb 23 19:08:39 2015
     Host name              : foeroyar                                


            +---------------------------------------------------------+
            ! Gradient elements calculated directly and from symmetry !
            +---------------------------------------------------------+



        Coordinate    Direct calc.     Tra.-rot. sym.   Difference
        ----------------------------------------------------------

        O    x        0.0129751473     0.0113636232     0.0016115240
        O    y       -0.0041912326    -0.0014971640    -0.0026940686
        O    z        0.0020226737     0.0040196307    -0.0019969570
        H    x       -0.0069310293    -0.0039637091    -0.0029673202
        H    y        0.0028484646     0.0008754771     0.0019729875
        H    y       -0.0015210279     0.0006216870    -0.0021427148



 >>> WARNING from TRAROT:

 Largest deviation from tra-rot symmetry is in gradient element  4:  2.97E-03


   ***************************************************************************
   ************************ FINAL RESULTS from ABACUS ************************
   ***************************************************************************


 
     Date and time (Linux)  : Mon Feb 23 19:08:40 2015
     Host name              : foeroyar                                

 WARNING: warnings have been issued, please check the output above !


 CPU time statistics for ABACUS
 ------------------------------




 >>>> Total CPU  time used in ABACUS:   0.12 seconds
 >>>> Total wall time used in ABACUS:   0.11 seconds


                   .-------------------------------------------.
                   | End of Static Property Section (ABACUS) - |
                   `-------------------------------------------'


 Predicted energy change       -0.005756041052041


  Step in diagonal representation
  -------------------------------


               Column   1     Column   2     Column   3     Column   4     Column   5     Column   6     Column   7     Column   8
       1       0.18457374     0.00328361     0.00394537     0.00499370    -0.00084909     0.00484023    -0.00105104     0.00455021

               Column   9
       1      -0.00053217
    ==== End of matrix output ====


           :::::::::::::::::::::::::::::::::::::::::::::::::::::::::::
           ::::::::::::::: Optimization Control Center :::::::::::::::
           :::::::::::::::::::::::::::::::::::::::::::::::::::::::::::



                                Next geometry (au)
                                ------------------

 O         -0.1402781341            0.0078524004            0.1398688175
 H          1.0872623105            0.6390072956           -1.1975074859
 H          0.9537204315           -0.6090413187            1.3567191629





                             Optimization information
                             ------------------------

 Iteration number               :       3
 End of optimization            :       F 
 Energy at this geometry is     :     -75.036052
 Energy change from last geom.  :      -0.000542
 Predicted change               :      -0.000979
 Ratio, actual/predicted change :       0.553239
 Norm of gradient               :       0.017644
 Norm of step                   :       0.184838
 Updated trust radius           :       0.184838
 Total effective Hessian index  :       2




 **************************************************************************************
 ****************** Output of molecule and basis set info suppressed ******************
[...]
 ****************** Output of molecule and basis set info suppressed ******************
 **************************************************************************************



                     .---------------------------------------.
                     | Starting in Integral Section (HERMIT) |
                     `---------------------------------------'



 ***************************************************************************************
 ****************** Output from **INTEGRALS input processing (HERMIT) ******************
 ***************************************************************************************


 - Using defaults, no **INTEGRALS input found

 Default print level:       -1

 * Nuclear model: Point charge

 Calculation of one- and two-electron Hamiltonian integrals.

 Center of mass  (bohr):     -0.118381404483     -0.269213641631      0.578088771586
 Operator center (bohr):      0.000000000000      0.000000000000      0.000000000000
 Gauge origin    (bohr):      0.000000000000      0.000000000000      0.000000000000
 Dipole origin   (bohr):      0.000000000000      0.000000000000      0.000000000000

 Threshold for neglecting two-electron integrals:  1.00D-12
 HERMIT - Number of two-electron integrals written:         319 ( 78.6% )
 HERMIT - Megabytes written:                              0.007

 >>>> Total CPU  time used in HERMIT:   0.01 seconds
 >>>> Total wall time used in HERMIT:   0.01 seconds


                        .----------------------------------.
                        | End of Integral Section (HERMIT) |
                        `----------------------------------'



                   .--------------------------------------------.
                   | Starting in Wave Function Section (SIRIUS) |
                   `--------------------------------------------'


 **********************************************************************
 *SIRIUS* a direct, restricted step, second order MCSCF program       *
 **********************************************************************

 (Wave function specification suppressed here, see output above for initial geometry.)


 ***********************************************
 ***** DIIS acceleration of SCF iterations *****
 ***********************************************

 C1-DIIS algorithm; max error vectors =    8

 Iter      Total energy     Embedding energy      Error norm     Delta(E)
 -----------------------------------------------------------------------------
     (Precalculated two-electron integrals are transformed to P-supermatrix elements.
      Threshold for discarding integrals :  1.00D-12 )
@  1  -75.0374104900     -7.461045305213E-02    1.37608D-03    3.79D-07
      Virial theorem: -V/T =      2.005119
@      MULPOP O      -0.43; H       0.20; H       0.22; 
 -----------------------------------------------------------------------------
@  2  -75.0374108109     -7.460653963363E-02    6.61868D-04   -3.21D-07
      Virial theorem: -V/T =      2.005119
@      MULPOP O      -0.43; H       0.20; H       0.22; 
 -----------------------------------------------------------------------------
@  3  -75.0374109077     -7.460374248007E-02    1.60353D-05   -9.69D-08
      Virial theorem: -V/T =      2.005119
@      MULPOP O      -0.43; H       0.20; H       0.22; 
 -----------------------------------------------------------------------------
@  4  -75.0374109078     -7.460380336836E-02    5.53369D-06   -3.18D-11

@ *** DIIS converged in   4 iterations !
@     Converged SCF energy, gradient:    -75.037410907756    5.53D-06
    - total time used in SIRFCK :              0.00 seconds


 *** SCF orbital energy analysis ***
   (incl. contribution from polarizable embedding potential)

 Number of electrons :   10
 Orbital occupations :    5

 Sym       Hartree-Fock orbital energies

1 A     -20.23141399    -1.26072996    -0.59445315    -0.47868702    -0.40636213
          0.60161720     0.71205058

    E(LUMO) :     0.60161720 au (symmetry 1)
  - E(HOMO) :    -0.40636213 au (symmetry 1)
  ------------------------------------------
    gap     :     1.00797933 au

    .--------------------------------------------------.
    | Final results from polarizable embedding library |
    `--------------------------------------------------´

        Polarizable embedding energy contributions:
       ---------------------------------------------

       Electrostatic contributions:
            Electronic                -0.169753758962
            Nuclear                    0.137005597339
            Multipole                  0.000000000000
            Total                     -0.032748161623

       Polarization contributions:
            Electronic                -0.077732151435
            Nuclear                    0.072410563312
            Multipole                 -0.044089270987
            Total                     -0.049410859110

       LJ energy contribution:
            Dispersion 6              -0.011248710859
            Repulsion 12               0.018803928223

       Total PE energy:            -0.074603803369

 >>> Writing SIRIFC interface file

 >>>> CPU and wall time for SCF :       0.198       0.198


                       .-----------------------------------.
                       | >>> Final results from SIRIUS <<< |
                       `-----------------------------------'


@    Spin multiplicity:           1
@    Spatial symmetry:            1 ( irrep  A   in C1  )
@    Total charge of molecule:    0

@    Final HF energy:             -75.037410907756                 
@    Nuclear repulsion:             8.927878334623
@    Electronic energy:           -83.890685439011
@    Embedding energy:             -0.074603803368

@    Final gradient norm:           0.000005533691

 
     Date and time (Linux)  : Mon Feb 23 19:08:53 2015
     Host name              : foeroyar                                



 >>>> Total CPU  time used in SIRIUS :      0.20 seconds
 >>>> Total wall time used in SIRIUS :      0.20 seconds

 
     Date and time (Linux)  : Mon Feb 23 19:08:53 2015
     Host name              : foeroyar                                


                     .---------------------------------------.
                     | End of Wave Function Section (SIRIUS) |
                     `---------------------------------------'

 Trust radius increased due to good ratio.
 Updated trust radius   0.23308

     Order of analytical energy-derivatives available:   1
     This will be the default.

 Center of mass dipole origin  :   -0.118381   -0.269214    0.578089

 Center of mass gauge origin   :   -0.118381   -0.269214    0.578089


                 .------------------------------------------------.
                 | Starting in Static Property Section (ABACUS) - |
                 `------------------------------------------------'


 
     Date and time (Linux)  : Mon Feb 23 19:08:53 2015
     Host name              : foeroyar                                


            +---------------------------------------------------------+
            ! Gradient elements calculated directly and from symmetry !
            +---------------------------------------------------------+



        Coordinate    Direct calc.     Tra.-rot. sym.   Difference
        ----------------------------------------------------------

        O    x        0.0000583601     0.0000584593    -0.0000000992
        O    y       -0.0000151669    -0.0000061476    -0.0000090192
        O    z       -0.0000047685    -0.0000027307    -0.0000020378
        H    x       -0.0000284154    -0.0000346565     0.0000062411
        H    y       -0.0000013163    -0.0000013293     0.0000000130
        H    x       -0.0000186306    -0.0000238028     0.0000051721



 >>> WARNING from TRAROT:

 Largest deviation from tra-rot symmetry is in gradient element  2:  9.02E-06


   ***************************************************************************
   ************************ FINAL RESULTS from ABACUS ************************
   ***************************************************************************


 
     Date and time (Linux)  : Mon Feb 23 19:08:53 2015
     Host name              : foeroyar                                

 WARNING: warnings have been issued, please check the output above !


 CPU time statistics for ABACUS
 ------------------------------




 >>>> Total CPU  time used in ABACUS:   0.12 seconds
 >>>> Total wall time used in ABACUS:   0.12 seconds


                   .-------------------------------------------.
                   | End of Static Property Section (ABACUS) - |
                   `-------------------------------------------'


 Predicted energy change       -0.000000007530372


  Step in diagonal representation
  -------------------------------


               Column   1     Column   2     Column   3     Column   4     Column   5     Column   6     Column   7     Column   8
       1       0.00238526     0.00002579     0.00086281    -0.00027167    -0.00005657     0.00010501    -0.00000950    -0.00005553

               Column   9
       1       0.00000553
    ==== End of matrix output ====


           :::::::::::::::::::::::::::::::::::::::::::::::::::::::::::
           ::::::::::::::: Optimization Control Center :::::::::::::::
           :::::::::::::::::::::::::::::::::::::::::::::::::::::::::::



                               Final geometry (au)
                               -------------------

 O         -0.2486422783           -0.2513976631            0.5673056026
 H          1.0698542212           -0.0870143540           -0.7356837940
 H          0.7607176805           -0.7341654536            2.0629980642





                             Optimization information
                             ------------------------

 Iteration number               :      35
 End of optimization            :       T 
 Energy at this geometry is     :     -75.037411
 Energy change from last geom.  :      -0.000000
 Predicted change               :      -0.000000
 Ratio, actual/predicted change :       1.272268
 Norm of gradient               :       0.000076
 Norm of step                   :       0.002555
 Updated trust radius           :       0.233078
 Total effective Hessian index  :       0




          <<<<<<<<<<<<<<<<<<<<<<<<<<<<<<<<<<<<<<<<<<<<<<<<<<<<<<<<<<<<<<
          <<<<<<<<<<<<<<<<<<<<  End of Optimization <<<<<<<<<<<<<<<<<<<<
          <<<<<<<<<<<<<<<<<<<<<<<<<<<<<<<<<<<<<<<<<<<<<<<<<<<<<<<<<<<<<<



                              Final geometry (bohr)
                              ---------------------

 O         -0.2486422783           -0.2513976631            0.5673056026
 H          1.0698542212           -0.0870143540           -0.7356837940
 H          0.7607176805           -0.7341654536            2.0629980642





                      Final geometry (xyz format; angstrom)
                      -------------------------------------

3

O       -0.1315758273           -0.1330339141            0.3002051964
H        0.5661424727           -0.0460460131           -0.3893070981
H        0.4025544604           -0.3885036270            1.0916915615



@ Iter     Energy        Change       GradNorm  Index   StepLen    TrustRad #Rej
@ ------------------------------------------------------------------------------
@   0      -75.032851     0.000000     0.078908    4    0.184838*   0.500000   1 
@   1      -75.034553    -0.001702     0.044212    3    0.184838    0.184838   0 
@   2      -75.035510    -0.000957     0.017630    2    0.184838    0.184838   0 
@   3      -75.036052    -0.000542     0.017644    2    0.016341*   0.184838   2 
@   4      -75.036060    -0.000008     0.023617    1    0.016341    0.016341   0 
@   5      -75.036195    -0.000135     0.018098    1    0.019609    0.019609   0 
@   6      -75.036319    -0.000123     0.015127    1    0.023530    0.023530   0 
@   7      -75.036429    -0.000110     0.013228    1    0.028236    0.028236   0 
@   8      -75.036541    -0.000112     0.010649    1    0.040660    0.040660   0 
@   9      -75.036671    -0.000129     0.007205    1    0.058551    0.058551   0 
@  10      -75.036810    -0.000139     0.003985    1    0.084314    0.084313   0 
@  11      -75.036947    -0.000137     0.003157    1    0.121408*   0.121412   0 
@  12      -75.037048    -0.000102     0.002714    0    0.121407    0.121408   0 
@  13      -75.037142    -0.000093     0.005418    0    0.145688    0.145688   0 
@  14      -75.037161    -0.000019     0.006603    0    0.101982    0.101982   0 
@  15      -75.037243    -0.000083     0.002284    0    0.101980*   0.101982   0 
@  16      -75.037279    -0.000036     0.002888    1    0.054205*   0.122377   1 
@  17      -75.037281    -0.000001     0.004570    1    0.054206    0.054205   0 
@  18      -75.037308    -0.000028     0.001489    1    0.065047    0.065047   0 
@  19      -75.037326    -0.000017     0.002058    0    0.078055*   0.078056   0 
@  20      -75.037347    -0.000021     0.001185    0    0.112397*   0.112399   0 
@  21      -75.037372    -0.000025     0.001465    0    0.161860    0.161852   0 
@  22      -75.037396    -0.000024     0.002028    0    0.130673*   0.233078   0 
@  23      -75.037404    -0.000009     0.001944    0    0.020920*   0.233078   0 
@  24      -75.037407    -0.000003     0.001284    0    0.047098*   0.233078   0 
@  25      -75.037409    -0.000002     0.000844    0    0.006895*   0.233078   0 
@  26      -75.037410    -0.000001     0.000478    0    0.007634*   0.233078   0 
@  27      -75.037410    -0.000000     0.000370    0    0.004199*   0.233078   0 
@  28      -75.037411    -0.000000     0.000212    0    0.002509*   0.233078   0 
@  29      -75.037411    -0.000000     0.000186    0    0.003131*   0.233078   0 
@  30      -75.037411    -0.000000     0.000244    0    0.001477*   0.233078   0 
@  31      -75.037411    -0.000000     0.000270    0    0.003788*   0.233078   0 
@  32      -75.037411    -0.000000     0.000314    0    0.002979*   0.233078   0 
@  33      -75.037411    -0.000000     0.000308    0    0.004276*   0.233078   0 
@  34      -75.037411    -0.000000     0.000206    0    0.004549*   0.233078   0 
@  35      -75.037411    -0.000000     0.000076    0    0.002555*   0.233078   0 

@  *) Newton step taken.


   Interatomic separations (in Angstrom):
   --------------------------------------

            O           H           H     
            ------      ------      ------
 O     :    0.000000
 H     :    0.984787    0.000000
 H     :    0.988438    1.528854    0.000000


  Max    interatomic separation is    1.5289 Angstrom (    2.8891 Bohr)
  between atoms    3 and    2, "H     " and "H     ".

  Min HX interatomic separation is    0.9848 Angstrom (    1.8610 Bohr)


  Bond distances (Angstrom):
  --------------------------

                  atom 1     atom 2       distance
                  ------     ------       --------
  bond distance:  H          O            0.984787
  bond distance:  H          O            0.988438


  Bond angles (degrees):
  ----------------------

                  atom 1     atom 2     atom 3         angle
                  ------     ------     ------         -----
  bond angle:     H          O          H            101.574



@ Geometry converged in 36 iterations!

@ Energy at final geometry is       :     -75.037411 a.u.
@ Energy change during optimization :      -0.004560 a.u.
@                                            -11.972 kJ/mol


 Center of mass dipole origin  :   -0.118381   -0.269214    0.578089

 Center of mass gauge origin   :   -0.118381   -0.269214    0.578089

     Order of analytical energy-derivatives available:   1
     This will be the default.


                 .------------------------------------------------.
                 | Starting in Static Property Section (ABACUS) - |
                 `------------------------------------------------'


 
     Date and time (Linux)  : Mon Feb 23 19:08:53 2015
     Host name              : foeroyar                                


   ***************************************************************************
   ************************ FINAL RESULTS from ABACUS ************************
   ***************************************************************************


 
     Date and time (Linux)  : Mon Feb 23 19:08:53 2015
     Host name              : foeroyar                                


                             Molecular geometry (au)
                             -----------------------

 O         -0.2486422783           -0.2513976631            0.5673056026
 H          1.0698542212           -0.0870143540           -0.7356837940
 H          0.7607176805           -0.7341654536            2.0629980642





                        Molecular wave function and energy
                        ----------------------------------

     Spatial symmetry   1 ( A   )
     Spin multiplicity  1
     2 * M_S            0
     State number       1
     Total charge       0

     Total energy        -75.0374109078 au (Hartrees)
                         -2041.87181833 eV
                           -197010.6920 kJ/mol
                            -47086.6855 kcal/mol


                   Scalar Breit-Pauli relativistic corrections
                   -------------------------------------------

     Darwin correction:                          0.1294177389 au
     Mass-velocity correction:                  -0.1668867536 au

     Total relativistic correction:             -0.0374690146 au (0.0499%)
     Non-relativistic + relativistic energy:   -75.0748799224 au



      (Note that these corrections are NOT included in the results below.)


                                  Dipole moment
                                  -------------

                 au               Debye          C m (/(10**-30)
              0.788057           2.003042           6.681428


                             Dipole moment components
                             ------------------------

                 au               Debye          C m (/(10**-30)

      x      0.77437228         1.96825789         6.56540161
      y     -0.11309947        -0.28747015        -0.95889722
      z      0.09268384         0.23557881         0.78580633


   Units:   1 a.u. =   2.54175 Debye 
            1 a.u. =   8.47835 (10**-30) C m (SI)




   Interatomic separations (in Angstrom):
   --------------------------------------

            O           H           H     
            ------      ------      ------
 O     :    0.000000
 H     :    0.984787    0.000000
 H     :    0.988438    1.528854    0.000000


  Max    interatomic separation is    1.5289 Angstrom (    2.8891 Bohr)
  between atoms    3 and    2, "H     " and "H     ".

  Min HX interatomic separation is    0.9848 Angstrom (    1.8610 Bohr)


  Bond distances (Angstrom):
  --------------------------

                  atom 1     atom 2       distance
                  ------     ------       --------
  bond distance:  H          O            0.984787
  bond distance:  H          O            0.988438


  Bond angles (degrees):
  ----------------------

                  atom 1     atom 2     atom 3         angle
                  ------     ------     ------         -----
  bond angle:     H          O          H            101.574




 CPU time statistics for ABACUS
 ------------------------------




 >>>> Total CPU  time used in ABACUS:   0.01 seconds
 >>>> Total wall time used in ABACUS:   0.01 seconds


                   .-------------------------------------------.
                   | End of Static Property Section (ABACUS) - |
                   `-------------------------------------------'

 >>>> Total CPU  time used in DALTON:  16.22 seconds
 >>>> Total wall time used in DALTON:  16.21 seconds

 
     Date and time (Linux)  : Mon Feb 23 19:08:53 2015
     Host name              : foeroyar                                
