

     ************************************************************************
     *************** Dalton - An Electronic Structure Program ***************
     ************************************************************************

    This is output from DALTON (Release Dalton2013 patch 0)
   ----------------------------------------------------------------------------
    NOTE:
     
    Dalton is an experimental code for the evaluation of molecular
    properties using (MC)SCF, DFT, CI, and CC wave functions.
    The authors accept no responsibility for the performance of
    the code or for the correctness of the results.
     
    The code (in whole or part) is provided under a licence and
    is not to be reproduced for further distribution without
    the written permission of the authors or their representatives.
     
    See the home page "http://daltonprogram.org" for further information.
     
    If results obtained with this code are published,
    the appropriate citations would be both of:
     
       K. Aidas, C. Angeli, K. L. Bak, V. Bakken, R. Bast,
       L. Boman, O. Christiansen, R. Cimiraglia, S. Coriani,
       P. Dahle, E. K. Dalskov, U. Ekstroem, T. Enevoldsen,
       J. J. Eriksen, P. Ettenhuber, B. Fernandez, L. Ferrighi,
       H. Fliegl, L. Frediani, K. Hald, A. Halkier, C. Haettig,
       H. Heiberg, T. Helgaker, A. C. Hennum, H. Hettema,
       E. Hjertenaes, S. Hoest, I.-M. Hoeyvik, M. F. Iozzi,
       B. Jansik, H. J. Aa. Jensen, D. Jonsson, P. Joergensen,
       J. Kauczor, S. Kirpekar, T. Kjaergaard, W. Klopper,
       S. Knecht, R. Kobayashi, H. Koch, J. Kongsted, A. Krapp,
       K. Kristensen, A. Ligabue, O. B. Lutnaes, J. I. Melo,
       K. V. Mikkelsen, R. H. Myhre, C. Neiss, C. B. Nielsen,
       P. Norman, J. Olsen, J. M. H. Olsen, A. Osted,
       M. J. Packer, F. Pawlowski, T. B. Pedersen, P. F. Provasi,
       S. Reine, Z. Rinkevicius, T. A. Ruden, K. Ruud, V. Rybkin,
       P. Salek, C. C. M. Samson, A. Sanchez de Meras, T. Saue,
       S. P. A. Sauer, B. Schimmelpfennig, K. Sneskov,
       A. H. Steindal, K. O. Sylvester-Hvid, P. R. Taylor,
       A. M. Teale, E. I. Tellgren, D. P. Tew, A. J. Thorvaldsen,
       L. Thoegersen, O. Vahtras, M. A. Watson, D. J. D. Wilson,
       M. Ziolkowski and H. Agren.
       The Dalton quantum chemistry program system.
       WIREs Comput. Mol. Sci. 2013. doi: 10.1002/wcms.1172
    
    and
    
       Dalton, a Molecular Electronic Structure Program,
       Release DALTON2013.0 (2013), see http://daltonprogram.org
   ----------------------------------------------------------------------------

    Authors in alphabetical order (major contribution(s) in parenthesis):

  Kestutis Aidas,           Vilnius University,           Lithuania   (QM/MM)
  Celestino Angeli,         University of Ferrara,        Italy       (NEVPT2)
  Keld L. Bak,              UNI-C,                        Denmark     (AOSOPPA, non-adiabatic coupling, magnetic properties)
  Vebjoern Bakken,          University of Oslo,           Norway      (DALTON; geometry optimizer, symmetry detection)
  Radovan Bast,             KTH Stockholm                 Sweden      (DALTON installation and execution frameworks)
  Linus Boman,              NTNU,                         Norway      (Cholesky decomposition and subsystems)
  Ove Christiansen,         Aarhus University,            Denmark     (CC module)
  Renzo Cimiraglia,         University of Ferrara,        Italy       (NEVPT2)
  Sonia Coriani,            University of Trieste,        Italy       (CC module, MCD in RESPONS)
  Paal Dahle,               University of Oslo,           Norway      (Parallelization)
  Erik K. Dalskov,          UNI-C,                        Denmark     (SOPPA)
  Thomas Enevoldsen,        Univ. of Southern Denmark,    Denmark     (SOPPA)
  Janus J. Eriksen,         Aarhus University,            Denmark     (PE-MP2/SOPPA, TDA)
  Berta Fernandez,          U. of Santiago de Compostela, Spain       (doublet spin, ESR in RESPONS)
  Lara Ferrighi,            Aarhus University,            Denmark     (PCM Cubic response)
  Heike Fliegl,             University of Oslo,           Norway      (CCSD(R12))
  Luca Frediani,            UiT The Arctic U. of Norway,  Norway      (PCM)
  Bin Gao,                  UiT The Arctic U. of Norway,  Norway      (Gen1Int library)
  Christof Haettig,         Ruhr-University Bochum,       Germany     (CC module)
  Kasper Hald,              Aarhus University,            Denmark     (CC module)
  Asger Halkier,            Aarhus University,            Denmark     (CC module)
  Hanne Heiberg,            University of Oslo,           Norway      (geometry analysis, selected one-electron integrals)
  Trygve Helgaker,          University of Oslo,           Norway      (DALTON; ABACUS, ERI, DFT modules, London, and much more)
  Alf Christian Hennum,     University of Oslo,           Norway      (Parity violation)
  Hinne Hettema,            University of Auckland,       New Zealand (quadratic response in RESPONS; SIRIUS supersymmetry)
  Eirik Hjertenaes,         NTNU,                         Norway      (Cholesky decomposition)
  Maria Francesca Iozzi,    University of Oslo,           Norway      (RPA)
  Brano Jansik              Technical Univ. of Ostrava    Czech Rep.  (DFT cubic response)
  Hans Joergen Aa. Jensen,  Univ. of Southern Denmark,    Denmark     (DALTON; SIRIUS, RESPONS, ABACUS modules, London, and much more)
  Dan Jonsson,              UiT The Arctic U. of Norway,  Norway      (cubic response in RESPONS module)
  Poul Joergensen,          Aarhus University,            Denmark     (RESPONS, ABACUS, and CC modules)
  Joanna Kauczor,           Linkoeping University,        Sweden      (Complex polarization propagator (CPP) module)
  Sheela Kirpekar,          Univ. of Southern Denmark,    Denmark     (Mass-velocity & Darwin integrals)
  Wim Klopper,              KIT Karlsruhe,                Germany     (R12 code in CC, SIRIUS, and ABACUS modules)
  Stefan Knecht,            ETH Zurich,                   Switzerland (Parallel CI and MCSCF)
  Rika Kobayashi,           Australian National Univ.,    Australia   (DIIS in CC, London in MCSCF)
  Henrik Koch,              NTNU,                         Norway      (CC module, Cholesky decomposition)
  Jacob Kongsted,           Univ. of Southern Denmark,    Denmark     (Polarizable embedding, QM/MM)
  Andrea Ligabue,           University of Modena,         Italy       (CTOCD, AOSOPPA)
  Ola B. Lutnaes,           University of Oslo,           Norway      (DFT Hessian)
  Juan I. Melo,             University of Buenos Aires,   Argentina   (LRESC, Relativistic Effects on NMR Shieldings)
  Kurt V. Mikkelsen,        University of Copenhagen,     Denmark     (MC-SCRF and QM/MM)
  Rolf H. Myhre,            NTNU,                         Norway      (Cholesky, subsystems and ECC2)
  Christian Neiss,          Univ. Erlangen-Nuernberg,     Germany     (CCSD(R12))
  Christian B. Nielsen,     University of Copenhagen,     Denmark     (QM/MM)
  Patrick Norman,           Linkoeping University,        Sweden      (Cubic response and complex response in RESPONS)
  Jeppe Olsen,              Aarhus University,            Denmark     (SIRIUS CI/density modules)
  Jogvan Magnus H. Olsen,   Univ. of Southern Denmark,    Denmark     (Polarizable embedding, PE library, QM/MM)
  Anders Osted,             Copenhagen University,        Denmark     (QM/MM)
  Martin J. Packer,         University of Sheffield,      UK          (SOPPA)
  Filip Pawlowski,          Kazimierz Wielki University   Poland      (CC3)
  Thomas B. Pedersen,       University of Oslo,           Norway      (Cholesky decomposition)
  Patricio F. Provasi,      University of Northeastern,   Argentina   (Analysis of coupling constants in localized orbitals)
  Zilvinas Rinkevicius,     KTH Stockholm,                Sweden      (open-shell DFT, ESR)
  Elias Rudberg,            KTH Stockholm,                Sweden      (DFT grid and basis info)
  Torgeir A. Ruden,         University of Oslo,           Norway      (Numerical derivatives in ABACUS)
  Kenneth Ruud,             UiT The Arctic U. of Norway,  Norway      (DALTON; ABACUS magnetic properties and  much more)
  Pawel Salek,              KTH Stockholm,                Sweden      (DALTON; DFT code)
  Claire C. M. Samson       University of Karlsruhe       Germany     (Boys localization, r12 integrals in ERI)
  Alfredo Sanchez de Meras, University of Valencia,       Spain       (CC module, Cholesky decomposition)
  Trond Saue,               Paul Sabatier University,     France      (direct Fock matrix construction)
  Stephan P. A. Sauer,      University of Copenhagen,     Denmark     (SOPPA(CCSD), SOPPA prop., AOSOPPA, vibrational g-factors)
  Bernd Schimmelpfennig,    Forschungszentrum Karlsruhe,  Germany     (AMFI module)
  Kristian Sneskov,         Aarhus University,            Denmark     (QM/MM, PE-CC)
  Arnfinn H. Steindal,      UiT The Arctic U. of Norway,  Norway      (parallel QM/MM)
  K. O. Sylvester-Hvid,     University of Copenhagen,     Denmark     (MC-SCRF)
  Peter R. Taylor,          VLSCI/Univ. of Melbourne,     Australia   (Symmetry handling ABACUS, integral transformation)
  Andrew M. Teale,          University of Nottingham,     England     (DFT-AC, DFT-D)
  David P. Tew,             University of Bristol,        England     (CCSD(R12))
  Olav Vahtras,             KTH Stockholm,                Sweden      (triplet response, spin-orbit, ESR, TDDFT, open-shell DFT)
  David J. Wilson,          La Trobe University,          Australia   (DFT Hessian and DFT magnetizabilities)
  Hans Agren,               KTH Stockholm,                Sweden      (SIRIUS module, RESPONS, MC-SCRF solvation model)
 --------------------------------------------------------------------------------

     Date and time (Linux)  : Sun Sep  8 21:10:16 2013
     Host name              : lpqlx131.ups-tlse.fr                    

 * Work memory size             :    64000000 =  488.28 megabytes.

 * Directories for basis set searches:
   1) /home/bast/DALTON-2013.0-Source/build/test_ccsdr12_n2_gamma
   2) /home/bast/DALTON-2013.0-Source/build/basis


Compilation information
-----------------------

 Who compiled             | bast
 Host                     | lpqlx131.ups-tlse.fr
 System                   | Linux-3.8.5-201.fc18.x86_64
 CMake generator          | Unix Makefiles
 Processor                | x86_64
 64-bit integers          | OFF
 MPI                      | OFF
 Fortran compiler         | /usr/bin/gfortran
 Fortran compiler version | GNU Fortran (GCC) 4.7.2 20121109 (Red Hat 4.7.2-8)
 C compiler               | /usr/bin/gcc
 C compiler version       | gcc (GCC) 4.7.2 20121109 (Red Hat 4.7.2-8)
 C++ compiler             | /usr/bin/g++
 C++ compiler version     | g++ (GCC) 4.7.2 20121109 (Red Hat 4.7.2-8)
 Static linking           | OFF
 Last Git revision        | f34203295a86316e27f9e7b44f9b6769c4a046c0
 Configuration time       | 2013-09-08 20:31:27.952056


   Content of the .dal input file
 ----------------------------------

**DALTON INPUT                                    
.RUN WAVE FUNCTION                                
*MOLBAS                                           
.R12AUX                                           
**INTEGRALS                                       
.R12                                              
.DIPLEN                                           
**WAVE FUNCTIONS                                  
.CC                                               
*SCF INPUT                                        
.THRESHOLD                                        
 1D-10                                            
*ORBITALS                                         
.MOSTART                                          
 H1DIAG                                           
.R12ORB                                           
 0 0 0 0 0 1 1 0                                  
*CC INPUT                                         
.CCSD                                             
.PRINT                                            
 3                                                
.FREEZE                                           
 2 0                                              
.THRENR                                           
 1.0D-13                                          
.THRLEQ                                           
 1.0D-11                                          
.MAX IT                                           
 100                                              
*CCLR                                             
.DIPOLE                                           
*CCCR                                             
.DIPOLE                                           
*R12 INP                                          
.NO HYB                                           
.CC2                                              
 1B                                               
**END OF DALTON INPUT                             


   Content of the .mol file
 ----------------------------

BASIS                                                                          
cc-pVDZ aug-cc-pVTZ                                                            
N2                                                                             
                                                                               
    2  0 3  X  Y  Z  0.10D-14                                                  
 1      7.    1                                                                
N        0.0000000000000     0.0000000000000     1.0371572000000       *       
 2      7.    1                                                                
N        0.0000000000000     0.0000000000000     1.0371572000000       *       


       *******************************************************************
       *********** Output from DALTON general input processing ***********
       *******************************************************************

 --------------------------------------------------------------------------------
   Overall default print level:    0
   Print level for DALTON.STAT:    1

    HERMIT 1- and 2-electron integral sections will be executed
    "Old" integral transformation used (limited to max 255 basis functions)
    Wave function sections will be executed (SIRIUS module)
 --------------------------------------------------------------------------------


 Changes of defaults for *MOLBAS:
 --------------------------------

 Print level in molecule setup (READIN):    1

 .R12AUX: Reading auxiliary basis sets from .mol file for R12



   ****************************************************************************
   *************** Output of molecule and basis set information ***************
   ****************************************************************************


    The two title cards from your ".mol" input:
    ------------------------------------------------------------------------
 1: N2                                                                      
 2:                                                                         
    ------------------------------------------------------------------------

  Atomic type no.    1
  --------------------
  Nuclear charge:   7.00000
  Number of symmetry independent centers:    1
  Number of basis sets to read;    1
  Basis set file used for this atomic type with Z =   7 :
     "/home/bast/DALTON-2013.0-Source/build/basis/cc-pVDZ"

  Atomic type no.    2
  --------------------
  Nuclear charge:   7.00000
  Number of symmetry independent centers:    1
  This is an auxiliary basis for R12, MBSI:    2
  Basis set file used for this atomic type with Z =   7 :
     "/home/bast/DALTON-2013.0-Source/build/basis/aug-cc-pVTZ"


                         SYMGRP: Point group information
                         -------------------------------

Point group: D2h

   * The point group was generated by:

      Reflection in the yz-plane
      Reflection in the xz-plane
      Reflection in the xy-plane

   * Group multiplication table

        |  E   C2z  C2y  C2x   i   Oxy  Oxz  Oyz
   -----+----------------------------------------
     E  |  E   C2z  C2y  C2x   i   Oxy  Oxz  Oyz
    C2z | C2z   E   C2x  C2y  Oxy   i   Oyz  Oxz
    C2y | C2y  C2x   E   C2z  Oxz  Oyz   i   Oxy
    C2x | C2x  C2y  C2z   E   Oyz  Oxz  Oxy   i 
     i  |  i   Oxy  Oxz  Oyz   E   C2z  C2y  C2x
    Oxy | Oxy   i   Oyz  Oxz  C2z   E   C2x  C2y
    Oxz | Oxz  Oyz   i   Oxy  C2y  C2x   E   C2z
    Oyz | Oyz  Oxz  Oxy   i   C2x  C2y  C2z   E 

   * Character table

        |  E   C2z  C2y  C2x   i   Oxy  Oxz  Oyz
   -----+----------------------------------------
    Ag  |   1    1    1    1    1    1    1    1
    B3u |   1   -1   -1    1   -1    1    1   -1
    B2u |   1   -1    1   -1   -1    1   -1    1
    B1g |   1    1   -1   -1    1    1   -1   -1
    B1u |   1    1   -1   -1   -1   -1    1    1
    B2g |   1   -1    1   -1    1   -1    1   -1
    B3g |   1   -1   -1    1    1   -1   -1    1
    Au  |   1    1    1    1   -1   -1   -1   -1

   * Direct product table

        | Ag   B3u  B2u  B1g  B1u  B2g  B3g  Au 
   -----+----------------------------------------
    Ag  | Ag   B3u  B2u  B1g  B1u  B2g  B3g  Au 
    B3u | B3u  Ag   B1g  B2u  B2g  B1u  Au   B3g
    B2u | B2u  B1g  Ag   B3u  B3g  Au   B1u  B2g
    B1g | B1g  B2u  B3u  Ag   Au   B3g  B2g  B1u
    B1u | B1u  B2g  B3g  Au   Ag   B3u  B2u  B1g
    B2g | B2g  B1u  Au   B3g  B3u  Ag   B1g  B2u
    B3g | B3g  Au   B1u  B2g  B2u  B1g  Ag   B3u
    Au  | Au   B3g  B2g  B1u  B1g  B2u  B3u  Ag 


                                 Isotopic Masses
                                 ---------------

                           N   _1     14.003074
                           N   _2     14.003074
                           N   _1      0.000000
                           N   _2      0.000000

                       Total mass:    28.006148 amu
                       Natural abundance:   0.000 %

 Center-of-mass coordinates (a.u.):    0.000000    0.000000    0.000000


  Atoms and basis sets
  --------------------

  Number of atom types :    2
  Total number of atoms:    4

  Basis set 1 refers to the basis "cc-pVDZ" from the basis set library.

  Basis set 2 refers to the basis "aug-cc-pVTZ" from the basis set library.

  label  basis   atoms  charge   prim  cont     basis
  ------------------------------------------------------------------------------
  N        1       2    7.0000    26    14      [9s4p1d|3s2p1d]                                    
  N        2       2    0.0000    58    46      [11s6p3d2f|5s4p3d2f]                               
  ------------------------------------------------------------------------------
  total:           4   14.0000   168   120
  ------------------------------------------------------------------------------
  Spherical harmonic basis used.

  Threshold for neglecting AO integrals:  1.00D-15


  Cartesian Coordinates (a.u.)
  ----------------------------

  Total number of coordinates:   12
  N   / 1 :     1  x   0.0000000000    2  y   0.0000000000    3  z   1.0371572000
  N   / 2 :     4  x   0.0000000000    5  y   0.0000000000    6  z  -1.0371572000
  N   / 1 :     7  x   0.0000000000    8  y   0.0000000000    9  z   1.0371572000
  N   / 2 :    10  x   0.0000000000   11  y   0.0000000000   12  z  -1.0371572000


  Symmetry Coordinates
  --------------------

  Number of coordinates in each symmetry:     2    2    2    0    2    2    2    0

  Symmetry  Ag  ( 1)

    1   N     z    [  3  -    6 ]/2
    2   N     z    [  9  -   12 ]/2

  Symmetry  B3u ( 2)

    3   N     x    [  1  +    4 ]/2
    4   N     x    [  7  +   10 ]/2

  Symmetry  B2u ( 3)

    5   N     y    [  2  +    5 ]/2
    6   N     y    [  8  +   11 ]/2

  Symmetry  B1u ( 5)

    7   N     z    [  3  +    6 ]/2
    8   N     z    [  9  +   12 ]/2

  Symmetry  B2g ( 6)

    9   N     x    [  1  -    4 ]/2
   10   N     x    [  7  -   10 ]/2

  Symmetry  B3g ( 7)

   11   N     y    [  2  -    5 ]/2
   12   N     y    [  8  -   11 ]/2


   Interatomic separations (in Angstrom):
   --------------------------------------

            N   _1      N   _2      N   _1      N   _2
            ------      ------      ------      ------
 N   _1:    0.000000
 N   _2:    1.097680    0.000000
 N   _1:    0.000000    1.097680    0.000000
 N   _2:    1.097680    0.000000    1.097680    0.000000


  Max    interatomic separation is    1.0977 Angstrom (    2.0743 Bohr)
  between atoms    2 and    1, "N   _2" and "N   _1".

  Min YX interatomic separation is    0.0000 Angstrom (    0.0000 Bohr)

WARNING: Number of short HX and YX bond lengths:    0    2
WARNING: If not intentional, maybe your coordinates were in Angstrom,
WARNING: but "Angstrom" was not specified in .mol file


  Bond distances (Angstrom):
  --------------------------

                  atom 1     atom 2       distance
                  ------     ------       --------
  bond distance:  N   _2     N   _1       1.097680


  Bond angles (degrees):
  ----------------------

                  atom 1     atom 2     atom 3         angle
                  ------     ------     ------         -----
     No angles found




 Principal moments of inertia (u*A**2) and principal axes
 --------------------------------------------------------

   IA       0.000000          0.000000    0.000000    1.000000
   IB       8.436160          0.000000    1.000000    0.000000
   IC       8.436160          1.000000    0.000000    0.000000


 Rotational constants
 --------------------

 The molecule is linear.

               B =        59906.28 MHz     (    1.998259 cm-1)


@  Nuclear repulsion energy :   23.622262854657 Hartree


  Symmetry Orbitals
  -----------------

  Number of orbitals in each symmetry:          26   14   14    6   26   14   14    6

  Number of main orbitals in each symmetry:           7    3    3    1    7    3    3    1
  Number of auxiliary functions in each symmetry:    19   11   11    5   19   11   11    5


  Symmetry  Ag ( 1)

    1     N    M   1s         1 +    2
    2     N    M   1s         3 +    4
    3     N    M   1s         5 +    6
    4     N    M   2pz       11 -   12
    5     N    M   2pz       17 -   18
    6     N    M   3d0       23 +   24
    7     N    M   3d2+      27 +   28
    8     N    A   1s        29 +   30
    9     N    A   1s        31 +   32
   10     N    A   1s        33 +   34
   11     N    A   1s        35 +   36
   12     N    A   1s        37 +   38
   13     N    A   2pz       43 -   44
   14     N    A   2pz       49 -   50
   15     N    A   2pz       55 -   56
   16     N    A   2pz       61 -   62
   17     N    A   3d0       67 +   68
   18     N    A   3d2+      71 +   72
   19     N    A   3d0       77 +   78
   20     N    A   3d2+      81 +   82
   21     N    A   3d0       87 +   88
   22     N    A   3d2+      91 +   92
   23     N    A   4f0       99 -  100
   24     N    A   4f2+     103 -  104
   25     N    A   4f0      113 -  114
   26     N    A   4f2+     117 -  118


  Symmetry  B3u( 2)

   27     N    M   2px        7 +    8
   28     N    M   2px       13 +   14
   29     N    M   3d1+      25 -   26
   30     N    A   2px       39 +   40
   31     N    A   2px       45 +   46
   32     N    A   2px       51 +   52
   33     N    A   2px       57 +   58
   34     N    A   3d1+      69 -   70
   35     N    A   3d1+      79 -   80
   36     N    A   3d1+      89 -   90
   37     N    A   4f1+     101 +  102
   38     N    A   4f3+     105 +  106
   39     N    A   4f1+     115 +  116
   40     N    A   4f3+     119 +  120


  Symmetry  B2u( 3)

   41     N    M   2py        9 +   10
   42     N    M   2py       15 +   16
   43     N    M   3d1-      21 -   22
   44     N    A   2py       41 +   42
   45     N    A   2py       47 +   48
   46     N    A   2py       53 +   54
   47     N    A   2py       59 +   60
   48     N    A   3d1-      65 -   66
   49     N    A   3d1-      75 -   76
   50     N    A   3d1-      85 -   86
   51     N    A   4f3-      93 +   94
   52     N    A   4f1-      97 +   98
   53     N    A   4f3-     107 +  108
   54     N    A   4f1-     111 +  112


  Symmetry  B1g( 4)

   55     N    M   3d2-      19 +   20
   56     N    A   3d2-      63 +   64
   57     N    A   3d2-      73 +   74
   58     N    A   3d2-      83 +   84
   59     N    A   4f2-      95 -   96
   60     N    A   4f2-     109 -  110


  Symmetry  B1u( 5)

   61     N    M   1s         1 -    2
   62     N    M   1s         3 -    4
   63     N    M   1s         5 -    6
   64     N    M   2pz       11 +   12
   65     N    M   2pz       17 +   18
   66     N    M   3d0       23 -   24
   67     N    M   3d2+      27 -   28
   68     N    A   1s        29 -   30
   69     N    A   1s        31 -   32
   70     N    A   1s        33 -   34
   71     N    A   1s        35 -   36
   72     N    A   1s        37 -   38
   73     N    A   2pz       43 +   44
   74     N    A   2pz       49 +   50
   75     N    A   2pz       55 +   56
   76     N    A   2pz       61 +   62
   77     N    A   3d0       67 -   68
   78     N    A   3d2+      71 -   72
   79     N    A   3d0       77 -   78
   80     N    A   3d2+      81 -   82
   81     N    A   3d0       87 -   88
   82     N    A   3d2+      91 -   92
   83     N    A   4f0       99 +  100
   84     N    A   4f2+     103 +  104
   85     N    A   4f0      113 +  114
   86     N    A   4f2+     117 +  118


  Symmetry  B2g( 6)

   87     N    M   2px        7 -    8
   88     N    M   2px       13 -   14
   89     N    M   3d1+      25 +   26
   90     N    A   2px       39 -   40
   91     N    A   2px       45 -   46
   92     N    A   2px       51 -   52
   93     N    A   2px       57 -   58
   94     N    A   3d1+      69 +   70
   95     N    A   3d1+      79 +   80
   96     N    A   3d1+      89 +   90
   97     N    A   4f1+     101 -  102
   98     N    A   4f3+     105 -  106
   99     N    A   4f1+     115 -  116
  100     N    A   4f3+     119 -  120


  Symmetry  B3g( 7)

  101     N    M   2py        9 -   10
  102     N    M   2py       15 -   16
  103     N    M   3d1-      21 +   22
  104     N    A   2py       41 -   42
  105     N    A   2py       47 -   48
  106     N    A   2py       53 -   54
  107     N    A   2py       59 -   60
  108     N    A   3d1-      65 +   66
  109     N    A   3d1-      75 +   76
  110     N    A   3d1-      85 +   86
  111     N    A   4f3-      93 -   94
  112     N    A   4f1-      97 -   98
  113     N    A   4f3-     107 -  108
  114     N    A   4f1-     111 -  112


  Symmetry  Au ( 8)

  115     N    M   3d2-      19 -   20
  116     N    A   3d2-      63 -   64
  117     N    A   3d2-      73 -   74
  118     N    A   3d2-      83 -   84
  119     N    A   4f2-      95 +   96
  120     N    A   4f2-     109 +  110

  Number of floating/multiple basis set orbitals :    2

  Symmetries of electric field:  B3u(2)  B2u(3)  B1u(5)

  Symmetries of magnetic field:  B3g(7)  B2g(6)  B1g(4)


                     .---------------------------------------.
                     | Starting in Integral Section (HERMIT) |
                     `---------------------------------------'



    *************************************************************************
    ****************** Output from HERMIT input processing ******************
    *************************************************************************


 Default print level:        1

 * Nuclear model: Point charge

 Calculation of one- and two-electron Hamiltonian integrals.

 The following one-electron property integrals are calculated as requested:
          - overlap integrals
          - dipole length integrals
          - Cartesian multipole moment integrals of orders 2 and lower

 Center of mass  (bohr):      0.000000000000      0.000000000000      0.000000000000
 Operator center (bohr):      0.000000000000      0.000000000000      0.000000000000
 Gauge origin    (bohr):      0.000000000000      0.000000000000      0.000000000000
 Dipole origin   (bohr):      0.000000000000      0.000000000000      0.000000000000


     ************************************************************************
     ************************** Output from HERINT **************************
     ************************************************************************


 Threshold for neglecting two-electron integrals:  1.00D-15
 Number of two-electron integrals written:       18482 (  0.1% )
 Megabytes written:                              0.213

 >>>> Total CPU  time used in HERMIT:   0.09 seconds
 >>>> Total wall time used in HERMIT:   0.09 seconds


                        .----------------------------------.
                        | End of Integral Section (HERMIT) |
                        `----------------------------------'



                   .--------------------------------------------.
                   | Starting in Wave Function Section (SIRIUS) |
                   `--------------------------------------------'


 >>>> Detected R12 input:
 Direct Fock matrix formation switched on!
 Scale factors for CC excitations manifolds:
 for bra states (projection manifold):   1.0000000000000000     
 for ket states (operator manifold)  :   1.0000000000000000     

 **********************************************************************
 *SIRIUS* a direct, restricted step, second order MCSCF program       *
 **********************************************************************

 
     Date and time (Linux)  : Sun Sep  8 21:10:16 2013
     Host name              : lpqlx131.ups-tlse.fr                    

 Title lines from ".mol" input file:
     N2                                                                      
                                                                             

 Print level on unit LUPRI =   2 is   0
 Print level on unit LUW4  =   2 is   5

@    (Integral direct) CC calculation.

@    This is a combination run starting with
@              a restricted, closed shell Hartree-Fock calculation

 Fock matrices are calculated directly without use of integrals on disk.

 Initial molecular orbitals are obtained according to
 ".MOSTART H1DIAG" input option

     Wave function specification
     ============================

     For the specification of the Coupled Cluster: see later.

@    For the wave function of type :      >>> CC <<<
@    Number of closed shell electrons          14
@    Number of electrons in active shells       0
@    Total charge of the molecule               0

@    Spin multiplicity and 2 M_S                1         0
     Total number of symmetries                 8
@    Reference state symmetry                   1

     Orbital specifications
     ======================
     Abelian symmetry species          All |    1    2    3    4    5    6    7    8
                                       --- |  ---  ---  ---  ---  ---  ---  ---  ---
     Total number of orbitals           28 |    7    3    3    1    7    3    3    1
     Number of basis functions         120 |   26   14   14    6   26   14   14    6

      ** Automatic occupation of RHF orbitals **

      -- Initial occupation of symmetries is determined from diagonal of H1 matrix.           
      -- Initial occupation of symmetries is :
@    Occupied SCF orbitals               7 |    2    1    1    0    2    0    1    0

     Maximum number of Fock   iterations      0
     Maximum number of DIIS   iterations     60
     Maximum number of QC-SCF iterations     60
     Threshold for SCF convergence     1.00D-10


 Changes of defaults for CC:
 ---------------------------


 -Implicit frozen core calculation
 -Linear response properties calculated
 -Cubic response properties calculated
  


 >>>>> DIIS optimization of Hartree-Fock <<<<<

 C1-DIIS algorithm; max error vectors =   10

 Automatic occupation of symmetries with  14 electrons.

 Iter     Total energy    Error norm  Delta(E)    SCF occupation
 -----------------------------------------------------------------------------
   1  Screening settings (-IFTHRS, DIFDEN)   -7    T

***  INFO  GETGAB: GABAOXXX not found on AOPROPER. Regenerating.
@  1  -99.9001864071       8.40D+00  -9.99D+01     2   1   1   0   2   0   1   0
      Virial theorem: -V/T =      1.764633
@      MULPOP N   _1 -0.00; N   _2 -0.00; 
 -----------------------------------------------------------------------------
   2  Screening settings (-IFTHRS, DIFDEN)   -7    T
@  2  -106.570438678       6.17D+00  -6.67D+00     3   1   1   0   2   0   0   0
      Virial theorem: -V/T =      2.068769
@      MULPOP N   _1 -0.00; N   _2 -0.00; 
 -----------------------------------------------------------------------------
   3  Screening settings (-IFTHRS, DIFDEN)   -7    T
@  3  -108.865160625       1.19D+00  -2.29D+00     3   1   1   0   2   0   0   0
      Virial theorem: -V/T =      2.012765
@      MULPOP N   _1  0.00; N   _2  0.00; 
 -----------------------------------------------------------------------------
   4  Screening settings (-IFTHRS, DIFDEN)   -7    T
@  4  -108.950942734       1.77D-01  -8.58D-02     3   1   1   0   2   0   0   0
      Virial theorem: -V/T =      2.003496
@      MULPOP N   _1 -0.00; N   _2 -0.00; 
 -----------------------------------------------------------------------------
   5  Screening settings (-IFTHRS, DIFDEN)   -9    F
@  5  -108.954044008       3.11D-02  -3.10D-03     3   1   1   0   2   0   0   0
      Virial theorem: -V/T =      2.001923
@      MULPOP N   _1  0.00; N   _2  0.00; 
 -----------------------------------------------------------------------------
   6  Screening settings (-IFTHRS, DIFDEN)   -9    T
@  6  -108.954130007       2.84D-03  -8.60D-05     3   1   1   0   2   0   0   0
      Virial theorem: -V/T =      2.002181
@      MULPOP N   _1 -0.00; N   _2 -0.00; 
 -----------------------------------------------------------------------------
   7  Screening settings (-IFTHRS, DIFDEN)   -9    T
@  7  -108.954130754       4.14D-04  -7.47D-07     3   1   1   0   2   0   0   0
      Virial theorem: -V/T =      2.002201
@      MULPOP N   _1 -0.00; N   _2 -0.00; 
 -----------------------------------------------------------------------------
   8  Screening settings (-IFTHRS, DIFDEN)  -11    F
@  8  -108.954130767       5.09D-05  -1.22D-08     3   1   1   0   2   0   0   0
      Virial theorem: -V/T =      2.002196
@      MULPOP N   _1  0.00; N   _2  0.00; 
 -----------------------------------------------------------------------------
   9  Screening settings (-IFTHRS, DIFDEN)  -11    T
@  9  -108.954130767       3.32D-06  -1.85D-10     3   1   1   0   2   0   0   0
      Virial theorem: -V/T =      2.002197
@      MULPOP N   _1 -0.00; N   _2 -0.00; 
 -----------------------------------------------------------------------------
  10  Screening settings (-IFTHRS, DIFDEN)  -13    F
@ 10  -108.954130767       2.79D-07  -2.27D-13     3   1   1   0   2   0   0   0
      Virial theorem: -V/T =      2.002197
@      MULPOP N   _1  0.00; N   _2  0.00; 
 -----------------------------------------------------------------------------
  11  Screening settings (-IFTHRS, DIFDEN)  -16    F
@ 11  -108.954130767       2.50D-08  -5.68D-14     3   1   1   0   2   0   0   0
      Virial theorem: -V/T =      2.002197
@      MULPOP N   _1 -0.00; N   _2 -0.00; 
 -----------------------------------------------------------------------------
  12  Screening settings (-IFTHRS, DIFDEN)  -16    T
@ 12  -108.954130767       2.15D-09   0.00D+00     3   1   1   0   2   0   0   0
      Virial theorem: -V/T =      2.002197
@      MULPOP N   _1 -0.00; N   _2 -0.00; 
 -----------------------------------------------------------------------------
  13  Screening settings (-IFTHRS, DIFDEN)  -16    T
@ 13  -108.954130767       2.64D-10   5.68D-14     3   1   1   0   2   0   0   0
      Virial theorem: -V/T =      2.002197
@      MULPOP N   _1  0.00; N   _2  0.00; 
 -----------------------------------------------------------------------------
  14  Screening settings (-IFTHRS, DIFDEN)  -16    T
@ 14  -108.954130767       3.00D-11   0.00D+00     3   1   1   0   2   0   0   0

@ *** DIIS converged in  14 iterations !
@     Converged SCF energy, gradient:   -108.954130766747    3.00D-11
    - total time used in SIRFCK :              0.00 seconds


 *** SCF orbital energy analysis ***

 Only the five lowest virtual orbital energies printed in each symmetry.

 Number of electrons :   14
 Orbital occupations :    3    1    1    0    2    0    0    0

 Sym       Hartree-Fock orbital energies

  1    -15.68643302    -1.47120859    -0.62622749     0.82008402     0.99224378
         1.75739121     2.87449467

  2     -0.60815945     0.87221405     1.88205530

  3     -0.60815945     0.87221405     1.88205530

  4      1.75739121

  5    -15.68303014    -0.77409691     0.59463530     1.14441040     1.64322976
         2.29898758     3.28384200

  6      0.17565814     1.05104251     2.99647723

  7      0.17565814     1.05104251     2.99647723

  8      2.29898758

    E(LUMO) :     0.17565814 au (symmetry 6)
  - E(HOMO) :    -0.60815945 au (symmetry 3)
  ------------------------------------------
    gap     :     0.78381760 au

 >>> Writing SIRIFC interface file <<<

  Canonical primary and secondary basis sets
  ISYM       NORB1 MBAS1       NORB2 MBAS2
     1           7     7          19    19
     2           3     3          11    11
     3           3     3          11    11
     4           1     1           5     5
     5           7     7          19    19
     6           3     3          11    11
     7           3     3          11    11
     8           1     1           5     5

 Computation of exchange matrix done [6]

 AUXILIARY BASIS LOW EIGENVALUES
 ISYM         EIGENVALUE
   1      0.000096872451
   2      0.000660871517
   3      0.000660871517
   4      0.007866326402
   5      0.000002552834
   6      0.000078816177
   7      0.000078816177
   8      0.003044913915
 >>>  Time used in R12AUX     is   0.52 seconds

 >>>> CPU and wall time for SCF :       0.895       0.902


                       .-----------------------------------.
                       | >>> Final results from SIRIUS <<< |
                       `-----------------------------------'


@    Spin multiplicity:           1
@    Spatial symmetry:            1
@    Total charge of molecule:    0

@    Final HF energy:            -108.954130766747                 
@    Nuclear repulsion:            23.622262854657
@    Electronic energy:          -132.576393621403

@    Final gradient norm:           0.000000000030

 
     Date and time (Linux)  : Sun Sep  8 21:10:17 2013
     Host name              : lpqlx131.ups-tlse.fr                    

 (Only coefficients >0.0100 are printed.)

 Molecular orbitals for symmetry species  1
 ------------------------------------------

    Orbital         1        2        3        4        5
   1 N   :1s     0.7069  -0.0087  -0.0114  -0.1577   0.4269
   2 N   :1s     0.0008   0.6660   0.1916  -0.6015   2.0701
   3 N   :1s    -0.0000  -0.1914   0.2197   0.3502  -2.1305
   4 N   :2pz   -0.0020  -0.3214   0.6703   0.6790   0.3971
   5 N   :2pz    0.0015   0.1123  -0.0966  -1.2599  -0.3650
   6 N   :3d0    0.0004   0.0285  -0.0250  -0.0714   0.0636

 Molecular orbitals for symmetry species  2
 ------------------------------------------

    Orbital         1        2        3
   1 N   :2px    0.6293   0.9478   0.4272
   2 N   :2px   -0.0339  -1.0580  -0.2665
   3 N   :3d1+  -0.0475  -0.1034   0.5954

 Molecular orbitals for symmetry species  3
 ------------------------------------------

    Orbital         1        2        3
   1 N   :2py    0.6293  -0.9478   0.4272
   2 N   :2py   -0.0339   1.0580  -0.2665
   3 N   :3d1-  -0.0475   0.1034   0.5954

 Molecular orbitals for symmetry species  4
 ------------------------------------------

    Orbital         1
   1 N   :3d2-   0.6530

 Molecular orbitals for symmetry species  5
 ------------------------------------------

    Orbital         1        2        3        4
   1 N   :1s     0.7080   0.0035  -0.0307  -0.1454
   2 N   :1s     0.0033   0.6527   0.3363  -0.4514
   3 N   :1s    -0.0045   0.0441   3.7484   0.9095
   4 N   :2pz   -0.0035   0.3186  -0.0889  -1.1151
   5 N   :2pz    0.0030  -0.0331  -2.5926   0.7022
   6 N   :3d0    0.0012  -0.0134   0.0539  -0.2305

 Molecular orbitals for symmetry species  6
 ------------------------------------------

    Orbital         1        2
   1 N   :2px   -0.6312   1.0812
   2 N   :2px   -0.3857  -1.6571
   3 N   :3d1+  -0.0130   0.0688

 Molecular orbitals for symmetry species  7
 ------------------------------------------

    Orbital         1        2
   1 N   :2py   -0.6312   1.0812
   2 N   :2py   -0.3857  -1.6571
   3 N   :3d1-  -0.0130   0.0688

 Molecular orbitals for symmetry species  8
 ------------------------------------------

    Orbital         1
   1 N   :3d2-   0.7773



 >>>> Total CPU  time used in SIRIUS :      0.90 seconds
 >>>> Total wall time used in SIRIUS :      0.91 seconds

 
     Date and time (Linux)  : Sun Sep  8 21:10:17 2013
     Host name              : lpqlx131.ups-tlse.fr                    


                     .---------------------------------------.
                     | End of Wave Function Section (SIRIUS) |
                     `---------------------------------------'



                    .------------------------------------------.
                    | Starting in Coupled Cluster Section (CC) |
                    `------------------------------------------'

  

 *******************************************************************************
 *******************************************************************************
 *                                                                             *
 *                                                                             *
 *                    START OF COUPLED CLUSTER CALCULATION                     *
 *                                                                             *
 *                                                                             *
 *******************************************************************************
 *******************************************************************************


  I am freezing!
  >> output from FNDMN3 <<
  NUMBER OF ELEMENTS OBTAINED IN FNDMN3            2
  FROM FNDMN3 : 
    PLACES OF LOWEST ELEMENTS 
     1 :      1     15
  MIN AND MAX IN SELECTED SUPSPACE   -15.686433024024971       -15.683030137287016     
 Freezing HF-orbital   1 of symmetry   1 and with orbital energy  -15.6864
 Freezing HF-orbital  15 of symmetry   5 and with orbital energy  -15.6830
 In total frozen-core per symmetry-class:  1  0  0  0  1  0  0  0
 


 CCR12 ANSATZ =   1

 CCR12 APPROX =   7


  I am freezing!
 Freezing HF-orbital   1 of symmetry   1 and with orbital energy  -15.6864
 Freezing HF-orbital  66 of symmetry   5 and with orbital energy  -15.6830
 In total frozen-core per symmetry-class:  1  0  0  0  1  0  0  0
 
   NRHF   :       2       1       1       0       1       1       1       0
   NRHFS  :       3       1       1       0       2       1       1       0
   NORB1  :       7       3       3       1       7       3       3       1
   NORB2  :      19      11      11       5      19      11      11       5

 Number of primary orbitals             :           28
 Number of secondary orbitals           :           92
 Total number of orbitals               :          120
 Total number of basis functions        :          120
 Number of (i|p') integrals             :          134
 Number of (i|u') integrals             :          134
 Number of (Ip'|1/r12|jL) integrals     :          536
 Number of (ip'|1/r12|jq') integrals    :        46324
 Number of (ip'|r12|jq') integrals      :        46324
 Number of (ip'|[T1,r12]|jq') integrals :        91808
 Threshold for R12 contributions            =  0.00000    
 Threshold for singular value decomposition = 0.100000E-11

 The B matrix is transformed into an orthogonal basis
 and inverted by diagonalization

 ******************************************************************************
 The MP2-R12/A and MP2-R12/B energies are computed as described in:
 W. Klopper and C. C. M. Samson, J. Chem. Phys. 116, 6397-6410 (2002).
 ------------------------------------------------------------------------------
 Ansatz 1 is used and results are printed for approximations A and B.
 ******************************************************************************

 Core memory required by CCSD_R12 :         286225  (double words)

 Computation of (ip'|r12|jq') integrals done
 >>>  Time used in R  [6]     is   2.00 seconds
 Backtransformation of (ip'|r12|jq') integrals done
 Computation of CC-R12 VXINT response intermediates done

 >>> Time used for VXINT is   0.02 seconds

 Computation of (ip'|1/r12|jq') integrals done
 >>>  Time used in 1/R[5]     is   0.58 seconds
 Computation of (ip'|r12|jq')X(p'r')(kr'|r12|lq') integrals done
 Computation of (i'p'|r12|jq') integrals done
 >>>  Time used in R  [6]     is   2.02 seconds
 Computation of (ip'|[T,r12]|jq') integrals done
 >>>  Time used in T,R[5]     is   0.73 seconds


                 +-----------------------------------------------+
                 ! MP2-R12 ansatz := (1 - P1 - P2 + P1*P2) * R12 !
                 +-----------------------------------------------+


 SECOND-ORDER PAIR ENERGIES:

                    1   -0.008763677    0.000000000
                    2   -0.006246612   -0.002669076
                    3   -0.012480862    0.000000000
                    4   -0.010791034   -0.008771104
                    5   -0.007667963   -0.018999106
                    6   -0.025472361    0.000000000
                    7   -0.010791034   -0.008771104
                    8   -0.007667963   -0.018999106
                    9   -0.018532276   -0.035605763
                   10   -0.025472361    0.000000000
                   11   -0.003148442   -0.003586569
                   12   -0.016876936   -0.003024140
                   13   -0.008409981   -0.011123628
                   14   -0.008409981   -0.011123628
                   15   -0.012886294    0.000000000

 MP2 =   -0.306291004   -0.183617778   -0.122673226


                         +--------------------------------+
                         ! Auxiliary-basis MP2-R12 method !
                         +--------------------------------+


 SECOND-ORDER R12/A PAIR ENERGIES:

   1   -0.008763677   -0.013861661    0.000000000   -0.000000000    0.839461        0.829730    
   2   -0.006246612   -0.008830986   -0.002669076   -0.002922745    0.839461        0.829730    
   3   -0.012480862   -0.015847509    0.000000000   -0.000000000    0.839461        0.829730    
   4   -0.010791034   -0.013533306   -0.008771104   -0.009545667    0.839461        0.829730    
   5   -0.007667963   -0.009313504   -0.018999106   -0.020009392    0.839461        0.829730    
   6   -0.025472361   -0.029301576    0.000000000   -0.000000000    0.839461        0.829730    
   7   -0.010791034   -0.013533306   -0.008771104   -0.009545667    0.839461        0.829730    
   8   -0.007667963   -0.009313504   -0.018999106   -0.020009392    0.839461        0.829730    
   9   -0.018532276   -0.020493401   -0.035605763   -0.037175210    0.839461        0.829730    
  10   -0.025472361   -0.029301576    0.000000000   -0.000000000    0.839461        0.829730    
  11   -0.003148442   -0.004655209   -0.003586569   -0.003871891    0.839461        0.829730    
  12   -0.016876936   -0.020982297   -0.003024140   -0.003123189    0.839461        0.829730    
  13   -0.008409981   -0.009874971   -0.011123628   -0.011681622    0.839461        0.829730    
  14   -0.008409981   -0.009874971   -0.011123628   -0.011681622    0.839461        0.829730    
  15   -0.012886294   -0.015651257    0.000000000   -0.000000000    0.839461        0.829730    

       -0.183617778   -0.224369034   -0.122673226   -0.129566399

              MP2-R12/A   correlation energy =   -0.353935433

 SECOND-ORDER R12/B PAIR ENERGIES:

   1   -0.008763677   -0.012588928    0.000000000   -0.000000000     3.80665         3.83481    
   2   -0.006246612   -0.008271231   -0.002669076   -0.002864355     2.96167         2.98983    
   3   -0.012480862   -0.015227910    0.000000000   -0.000000000     2.11669         2.14485    
   4   -0.010791034   -0.012888169   -0.008771104   -0.009323188     2.94360         2.97176    
   5   -0.007667963   -0.008991865   -0.018999106   -0.019809030     2.09862         2.12678    
   6   -0.025472361   -0.028367329    0.000000000   -0.000000000     2.08055         2.10871    
   7   -0.010791034   -0.012888169   -0.008771104   -0.009323188     2.94360         2.97176    
   8   -0.007667963   -0.008991865   -0.018999106   -0.019809030     2.09862         2.12678    
   9   -0.018532276   -0.019952144   -0.035605763   -0.036634653     2.08055         2.10871    
  10   -0.025472361   -0.028367329    0.000000000   -0.000000000     2.08055         2.10871    
  11   -0.003148442   -0.004192266   -0.003586569   -0.003797046     3.10954         3.13770    
  12   -0.016876936   -0.020241096   -0.003024140   -0.003106662     2.26456         2.29272    
  13   -0.008409981   -0.009548970   -0.011123628   -0.011517429     2.24649         2.27465    
  14   -0.008409981   -0.009548970   -0.011123628   -0.011517429     2.24649         2.27465    
  15   -0.012886294   -0.014997238    0.000000000   -0.000000000     2.41242         2.44059    

       -0.183617778   -0.215063478   -0.122673226   -0.127702008

              MP2-R12/B   correlation energy =   -0.342765487
 Time for MP2-R12 part cpu :   5.4020000000000001     
 Time for MP2-R12 part wall:   5.9000000059604645     

  I am freezing!
  >> output from FNDMN3 <<
  NUMBER OF ELEMENTS OBTAINED IN FNDMN3            2
  FROM FNDMN3 : 
    PLACES OF LOWEST ELEMENTS 
     1 :      1     15
  MIN AND MAX IN SELECTED SUPSPACE   -15.686433024024971       -15.683030137287016     
 Freezing HF-orbital   1 of symmetry   1 and with orbital energy  -15.6864
 Freezing HF-orbital  15 of symmetry   5 and with orbital energy  -15.6830
 In total frozen-core per symmetry-class:  1  0  0  0  1  0  0  0
 
 Preparing R12 V-interm. ... ONEAUX= F
 Time used for V^albe_kl cpu:  0.20999999999999996     
 Time used for V^albe_kl wall:  0.21299999952316284     

   

 *******************************************************************
 *                                                                 *
 *<<<<<<<<<<                                             >>>>>>>>>>*
 *<<<<<<<<<< OUTPUT FROM COUPLED CLUSTER ENERGY PROGRAM  >>>>>>>>>>*
 *<<<<<<<<<<                                             >>>>>>>>>>*
 *                                                                 *
 *******************************************************************


             The Direct Coupled Cluster Energy Program
             -----------------------------------------


          Number of t1 amplitudes                 :        17
          Number of t2 amplitudes                 :       802
          Number of t2' amplitudes for R12 part   :       105
          Total number of amplitudes in ccsd      :       924

 Iter.  1: Coupled cluster MP2-R12/B energy :    -109.2968962535088480
     Conventional correlation energy:    -0.3062910038414373
     R12 correlation energy         :    -0.0364744829209030
     Total correlation energy       :    -0.3427654867623402


       Iteration no.:  1
       -----------------

       Time used in   RHS - TOTAL  :       0.01 seconds
       Norm^2 of omega1 after ccvec:        0.4243670330D-02
       Norm^2 of omega2 after ccvec:        0.1017671682D-01
       Norm^2 of Omegar12  in NXTAM:        0.9353256981D-04
 Iter.  1: Coupled cluster CCSD(R12)/B energy :    -109.2760678954915363
     Conventional correlation energy:    -0.2899365627093857
     R12 correlation energy         :    -0.0320005660356542
     Total correlation energy       :    -0.3219371287450399


       Iteration no.:  2
       -----------------

       Time used in   RHS - TOTAL  :       0.01 seconds
       Norm^2 of omega1 after ccvec:        0.4458845477D-04
       Norm^2 of omega2 after ccvec:        0.1758657488D-02
       Norm^2 of Omegar12  in NXTAM:        0.5743908855D-06
 Iter.  2: Coupled cluster CCSD(R12)/B energy :    -109.2884776334873038
     Conventional correlation energy:    -0.3022602557656455
     R12 correlation energy         :    -0.0320866109751494
     Total correlation energy       :    -0.3343468667407949


       Iteration no.:  3
       -----------------

       Time used in   RHS - TOTAL  :       0.01 seconds
       Norm^2 of omega1 after ccvec:        0.2321497328D-04
       Norm^2 of omega2 after ccvec:        0.1528013296D-03
       Norm^2 of Omegar12  in NXTAM:        0.2231384328D-06
 Iter.  3: Coupled cluster CCSD(R12)/B energy :    -109.2895451677983516
     Conventional correlation energy:    -0.3035808123323278
     R12 correlation energy         :    -0.0318335887195279
     Total correlation energy       :    -0.3354144010518557


       Iteration no.:  4
       -----------------

       Time used in   RHS - TOTAL  :       0.01 seconds
       Norm^2 of omega1 after ccvec:        0.1615700049D-06
       Norm^2 of omega2 after ccvec:        0.1748667260D-04
       Norm^2 of Omegar12  in NXTAM:        0.2565518007D-08
 Iter.  4: Coupled cluster CCSD(R12)/B energy :    -109.2902493743647057
     Conventional correlation energy:    -0.3042900960879535
     R12 correlation energy         :    -0.0318285115302479
     Total correlation energy       :    -0.3361186076182014


       Iteration no.:  5
       -----------------

       Time used in   RHS - TOTAL  :       0.01 seconds
       Norm^2 of omega1 after ccvec:        0.2692172681D-07
       Norm^2 of omega2 after ccvec:        0.8605974856D-06
       Norm^2 of Omegar12  in NXTAM:        0.4767280042D-09
 Iter.  5: Coupled cluster CCSD(R12)/B energy :    -109.2902181409692588
     Conventional correlation energy:    -0.3042517225206467
     R12 correlation energy         :    -0.0318356517021038
     Total correlation energy       :    -0.3360873742227505


       Iteration no.:  6
       -----------------

       Time used in   RHS - TOTAL  :       0.01 seconds
       Norm^2 of omega1 after ccvec:        0.2206521382D-08
       Norm^2 of omega2 after ccvec:        0.2953517844D-07
       Norm^2 of Omegar12  in NXTAM:        0.1150827641D-10
 Iter.  6: Coupled cluster CCSD(R12)/B energy :    -109.2902131907063676
     Conventional correlation energy:    -0.3042474240199198
     R12 correlation energy         :    -0.0318349999399413
     Total correlation energy       :    -0.3360824239598611


       Iteration no.:  7
       -----------------

       Time used in   RHS - TOTAL  :       0.01 seconds
       Norm^2 of omega1 after ccvec:        0.6221714200D-10
       Norm^2 of omega2 after ccvec:        0.1882416172D-08
       Norm^2 of Omegar12  in NXTAM:        0.9819121230D-12
 Iter.  7: Coupled cluster CCSD(R12)/B energy :    -109.2902174616017987
     Conventional correlation energy:    -0.3042517985043816
     R12 correlation energy         :    -0.0318348963509215
     Total correlation energy       :    -0.3360866948553031


       Iteration no.:  8
       -----------------

       Time used in   RHS - TOTAL  :       0.01 seconds
       Norm^2 of omega1 after ccvec:        0.2241842679D-11
       Norm^2 of omega2 after ccvec:        0.5747313975D-10
       Norm^2 of Omegar12  in NXTAM:        0.3256235085D-13
 Iter.  8: Coupled cluster CCSD(R12)/B energy :    -109.2902170738103393
     Conventional correlation energy:    -0.3042513669443565
     R12 correlation energy         :    -0.0318349401194752
     Total correlation energy       :    -0.3360863070638317


       Iteration no.:  9
       -----------------

       Time used in   RHS - TOTAL  :       0.01 seconds
       Norm^2 of omega1 after ccvec:        0.7914512672D-13
       Norm^2 of omega2 after ccvec:        0.2500235794D-11
       Norm^2 of Omegar12  in NXTAM:        0.1318642240D-14
 Iter.  9: Coupled cluster CCSD(R12)/B energy :    -109.2902171101270881
     Conventional correlation energy:    -0.3042514061502715
     R12 correlation energy         :    -0.0318349372303167
     Total correlation energy       :    -0.3360863433805882


       Iteration no.: 10
       -----------------

       Time used in   RHS - TOTAL  :       0.01 seconds
       Norm^2 of omega1 after ccvec:        0.1528173872D-13
       Norm^2 of omega2 after ccvec:        0.3176689883D-12
       Norm^2 of Omegar12  in NXTAM:        0.5326369593D-16
 Iter. 10: Coupled cluster CCSD(R12)/B energy :    -109.2902171171830332
     Conventional correlation energy:    -0.3042514149699400
     R12 correlation energy         :    -0.0318349354665953
     Total correlation energy       :    -0.3360863504365353


       Iteration no.: 11
       -----------------

       Time used in   RHS - TOTAL  :       0.01 seconds
       Norm^2 of omega1 after ccvec:        0.7652125828D-15
       Norm^2 of omega2 after ccvec:        0.1760081839D-13
       Norm^2 of Omegar12  in NXTAM:        0.1988534248D-16
 Iter. 11: Coupled cluster CCSD(R12)/B energy :    -109.2902171286072956
     Conventional correlation energy:    -0.3042514267344814
     R12 correlation energy         :    -0.0318349351263126
     Total correlation energy       :    -0.3360863618607940


       Iteration no.: 12
       -----------------

       Time used in   RHS - TOTAL  :       0.01 seconds
       Norm^2 of omega1 after ccvec:        0.7322590545D-16
       Norm^2 of omega2 after ccvec:        0.1919062821D-14
       Norm^2 of Omegar12  in NXTAM:        0.4097181298D-18
 Iter. 12: Coupled cluster CCSD(R12)/B energy :    -109.2902171296075124
     Conventional correlation energy:    -0.3042514279158723
     R12 correlation energy         :    -0.0318349349451406
     Total correlation energy       :    -0.3360863628610130


       Iteration no.: 13
       -----------------

       Time used in   RHS - TOTAL  :       0.01 seconds
       Norm^2 of omega1 after ccvec:        0.1959193237D-17
       Norm^2 of omega2 after ccvec:        0.7612506191D-16
       Norm^2 of Omegar12  in NXTAM:        0.4885812024D-19
 Iter. 13: Coupled cluster CCSD(R12)/B energy :    -109.2902171299610075
     Conventional correlation energy:    -0.3042514282268911
     R12 correlation energy         :    -0.0318349349876194
     Total correlation energy       :    -0.3360863632145105


       Iteration no.: 14
       -----------------

       Time used in   RHS - TOTAL  :       0.01 seconds
       Norm^2 of omega1 after ccvec:        0.2276995219D-18
       Norm^2 of omega2 after ccvec:        0.7896847566D-17
       Norm^2 of Omegar12  in NXTAM:        0.5214225305D-20
 Iter. 14: Coupled cluster CCSD(R12)/B energy :    -109.2902171299367353
     Conventional correlation energy:    -0.3042514282092839
     R12 correlation energy         :    -0.0318349349809561
     Total correlation energy       :    -0.3360863631902400


       Iteration no.: 15
       -----------------

       Time used in   RHS - TOTAL  :       0.01 seconds
       Norm^2 of omega1 after ccvec:        0.1445199417D-19
       Norm^2 of omega2 after ccvec:        0.4280622904D-18
       Norm^2 of Omegar12  in NXTAM:        0.1801908002D-21
 Iter. 15: Coupled cluster CCSD(R12)/B energy :    -109.2902171300568170
     Conventional correlation energy:    -0.3042514283344246
     R12 correlation energy         :    -0.0318349349758870
     Total correlation energy       :    -0.3360863633103117


       Iteration no.: 16
       -----------------

       Time used in   RHS - TOTAL  :       0.01 seconds
       Norm^2 of omega1 after ccvec:        0.5708709823D-21
       Norm^2 of omega2 after ccvec:        0.9636596978D-20
       Norm^2 of Omegar12  in NXTAM:        0.1117371220D-22
 Iter. 16: Coupled cluster CCSD(R12)/B energy :    -109.2902171300609666
     Conventional correlation energy:    -0.3042514283397395
     R12 correlation energy         :    -0.0318349349747196
     Total correlation energy       :    -0.3360863633144591


       Iteration no.: 17
       -----------------

       Time used in   RHS - TOTAL  :       0.01 seconds
       Norm^2 of omega1 after ccvec:        0.1003966531D-22
       Norm^2 of omega2 after ccvec:        0.1125271619D-20
       Norm^2 of Omegar12  in NXTAM:        0.2453519580D-24
 Iter. 17: Coupled cluster CCSD(R12)/B energy :    -109.2902171300635956
     Conventional correlation energy:    -0.3042514283423685
     R12 correlation energy         :    -0.0318349349747259
     Total correlation energy       :    -0.3360863633170944


       Iteration no.: 18
       -----------------

       Time used in   RHS - TOTAL  :       0.01 seconds
       Norm^2 of omega1 after ccvec:        0.2561729917D-23
       Norm^2 of omega2 after ccvec:        0.2511658398D-21
       Norm^2 of Omegar12  in NXTAM:        0.5894795032D-25
 Iter. 18: Coupled cluster CCSD(R12)/B energy :    -109.2902171300639935
     Conventional correlation energy:    -0.3042514283428517
     R12 correlation energy         :    -0.0318349349746444
     Total correlation energy       :    -0.3360863633174961


       Iteration no.: 19
       -----------------

       Time used in   RHS - TOTAL  :       0.01 seconds
       Norm^2 of omega1 after ccvec:        0.3747959848D-24
       Norm^2 of omega2 after ccvec:        0.1371908911D-22
       Norm^2 of Omegar12  in NXTAM:        0.8698522387D-26
 Iter. 19: Coupled cluster CCSD(R12)/B energy :    -109.2902171300646614
     Conventional correlation energy:    -0.3042514283435054
     R12 correlation energy         :    -0.0318349349746537
     Total correlation energy       :    -0.3360863633181591


       Iteration no.: 20
       -----------------

       Time used in   RHS - TOTAL  :       0.01 seconds
       Norm^2 of omega1 after ccvec:        0.4966038938D-25
       Norm^2 of omega2 after ccvec:        0.7280380104D-24
       Norm^2 of Omegar12  in NXTAM:        0.2295277731D-27
 Iter. 20: Coupled cluster CCSD(R12)/B energy :    -109.2902171300646756
     Conventional correlation energy:    -0.3042514283435196
     R12 correlation energy         :    -0.0318349349746495
     Total correlation energy       :    -0.3360863633181691


 CCSD(R12)/B energy converged to within   0.10D-12 is         -109.290217130065
 Final 2-norm of the CC vector function:  8.81872099D-13
 R12       energy converged to within   0.10D-12 is     -0.031834935


                    +------------------------------------------+
                    ! Largest amplitudes in converged solution !
                    +------------------------------------------+



          CC_PRAM:Overall Contribution of the Different Components
          --------------------------------------------------------



          Single Excitation Contribution :               2.0812 %

          Double Excitation Contribution :              97.9188 %

          ||T1||/||T2||                  :               0.1458

          Tau1 diagnostic                :               0.0116

          Norm of Total Amplitude Vector :               0.2540


 +=============================================================================+
 | symmetry|  orbital index  |   Excitation Numbers             |   Amplitude  |
 |  Index  |   a   b   i   j |      NAI      NBJ |     NAIBJ    |              |
 +=============================================================================+
 | 2   2   |   1       1     |        9          |              |    0.020159  |
 | 2   2   |   2       1     |       10          |              |    0.013515  |
 | 3   3   |   1       1     |       11          |              |   -0.020159  |
 | 3   3   |   2       1     |       12          |              |    0.013515  |
 | 5   5   |   1       1     |       13          |              |    0.005293  |
 | 5   5   |   2       1     |       14          |              |    0.009007  |
 | 5   5   |   3       1     |       15          |              |    0.004864  |
 +-----------------------------------------------------------------------------+
 | 6 6 5 5 |   1   1   1   1 |       10       10 |          208 |   -0.045801  |
 | 7 7 5 5 |   1   1   1   1 |       10       10 |          286 |   -0.045801  |
 | 5 5 1 1 |   2   2   2   2 |        7        7 |          365 |   -0.034123  |
 | 6 6 2 2 |   1   1   1   1 |       11       11 |          403 |   -0.101721  |
 | 6 6 2 2 |   2   1   1   1 |       12       11 |          414 |    0.033666  |
 | 7 6 3 2 |   1   1   1   1 |       14       11 |          439 |   -0.063968  |
 | 7 7 3 3 |   1   1   1   1 |       14       14 |          442 |   -0.101721  |
 | 7 7 3 3 |   2   1   1   1 |       15       14 |          456 |    0.033666  |
 +=============================================================================+


          Norm of Printed Amplitude Vector :             0.1836

          Printed all single excitations greater than 0.004809

          Printed all double excitations greater than 0.032985





             +-------------------------------------------------------+
             ! Final results from the Coupled Cluster energy program !
             +-------------------------------------------------------+



            Total SCF   energy:                  -108.9541307667

            Total MP2-R12/B energy:              -109.2968962535

            Total CCSD(R12)/B energy:            -109.2902171301




                   +--------------------------------------------+
                   ! Calculating singlet intermediates for CCLR !
                   +--------------------------------------------+



       Time used in   RHS - TOTAL  :       0.01 seconds


            E-intermediates calculated 
            Fock-intermediate calculated 
            Gamma-intermediate calculated 
            BF-intermediate calculated 
            C-intermediate calculated 
            D-intermediate calculated 


   

 *******************************************************************
 *                                                                 *
 *<<<<<<<<<<<<< OUTPUT FROM COUPLED CLUSTER RESPONSE  >>>>>>>>>>>>>*
 *                                                                 *
 *******************************************************************



                         +--------------------------------+
                         ! Coupled Cluster model is: CCSD !
                         +--------------------------------+


 Solving   1 response equations:
 L0 :
 RPA: call cceq_str
     Start vector generated from gradient
 RPA: exit cceq_str



 >>>>> COUPLED CLUSTER RESPONSE SOLVER <<<<<

    Iter  #Vectors  time (min)   residual
    --------------------------------------
  
 ROOT:  1 RESIDUAL TOT: 5.23827D-01
      1       1         0.00     0.52E+00
 Dimension of the reduced space:     2
 >>> TIME USED IN THIS MICRO ITERATION        0.01

  
 ROOT:  1 RESIDUAL TOT: 6.31197D-02
      2       1         0.00     0.63E-01
 Dimension of the reduced space:     3
 >>> TIME USED IN THIS MICRO ITERATION        0.01

  
 ROOT:  1 RESIDUAL TOT: 2.26351D-02
      3       1         0.00     0.23E-01
 Dimension of the reduced space:     4
 >>> TIME USED IN THIS MICRO ITERATION        0.01

  
 ROOT:  1 RESIDUAL TOT: 5.24882D-03
      4       1         0.00     0.52E-02
 Dimension of the reduced space:     5
 >>> TIME USED IN THIS MICRO ITERATION        0.01

  
 ROOT:  1 RESIDUAL TOT: 1.19398D-03
      5       1         0.00     0.12E-02
 Dimension of the reduced space:     6
 >>> TIME USED IN THIS MICRO ITERATION        0.01

  
 ROOT:  1 RESIDUAL TOT: 2.81886D-04
      6       1         0.00     0.28E-03
 Dimension of the reduced space:     7
 >>> TIME USED IN THIS MICRO ITERATION        0.01

  
 ROOT:  1 RESIDUAL TOT: 7.83442D-05
      7       1         0.00     0.78E-04
 Dimension of the reduced space:     8
 >>> TIME USED IN THIS MICRO ITERATION        0.01

  
 ROOT:  1 RESIDUAL TOT: 2.05206D-05
      8       1         0.00     0.21E-04
 Dimension of the reduced space:     9
 >>> TIME USED IN THIS MICRO ITERATION        0.01

  
 ROOT:  1 RESIDUAL TOT: 4.65459D-06
      9       1         0.00     0.47E-05
 Dimension of the reduced space:    10
 >>> TIME USED IN THIS MICRO ITERATION        0.01

  
 ROOT:  1 RESIDUAL TOT: 9.43562D-07
     10       1         0.00     0.94E-06
 Dimension of the reduced space:    11
 >>> TIME USED IN THIS MICRO ITERATION        0.01

  
 ROOT:  1 RESIDUAL TOT: 2.44502D-07
     11       1         0.00     0.24E-06
 Dimension of the reduced space:    12
 >>> TIME USED IN THIS MICRO ITERATION        0.01

  
 ROOT:  1 RESIDUAL TOT: 6.02077D-08
     12       1         0.00     0.60E-07
 Dimension of the reduced space:    13
 >>> TIME USED IN THIS MICRO ITERATION        0.01

  
 ROOT:  1 RESIDUAL TOT: 1.53950D-08
     13       1         0.00     0.15E-07
 Dimension of the reduced space:    14
 >>> TIME USED IN THIS MICRO ITERATION        0.01

  
 ROOT:  1 RESIDUAL TOT: 3.92984D-09
     14       1         0.00     0.39E-08
 Dimension of the reduced space:    15
 >>> TIME USED IN THIS MICRO ITERATION        0.01

  
 ROOT:  1 RESIDUAL TOT: 1.01788D-09
     15       1         0.00     0.10E-08
 Dimension of the reduced space:    16
 >>> TIME USED IN THIS MICRO ITERATION        0.01

  
 ROOT:  1 RESIDUAL TOT: 2.32494D-10
     16       1         0.00     0.23E-09
 Dimension of the reduced space:    17
 >>> TIME USED IN THIS MICRO ITERATION        0.01

  
 ROOT:  1 RESIDUAL TOT: 4.57361D-11
     17       1         0.00     0.46E-10
 Dimension of the reduced space:    18
 >>> TIME USED IN THIS MICRO ITERATION        0.01

  
 ROOT:  1 RESIDUAL TOT: 7.70828D-12
 ROOT:  1 HAS CONVERGED. RESIDUAL TOT: 7.70828D-12
     18       1         0.00     0.77E-11
 Dimension of the reduced space:    18
 >>> TIME USED IN THIS MICRO ITERATION        0.01

    --------------------------------------
    converged in 18 iterations
    threshold:    0.10E-10


         Routine          Time (min)
         ---------------------------
         CC_TRDRV            0.00
         CCRED               0.00
         CCNEX               0.00
         ---------------------------
         Total time          0.00


 >>>> Total CPU  time used in CCEQ_SOLV:   0.14 seconds
 >>>> Total wall time used in CCEQ_SOLV:   0.18 seconds


 >>>>>>>>>>>>>>>>>>>>> <<<<<<<<<<<<<<<<<<<<<



 Analysis of CC Response/Cauchy vector:
 --------------------------------------


          CC_PRAM:Overall Contribution of the Different Components
          --------------------------------------------------------



          Single Excitation Contribution :               0.7820 %

          Double Excitation Contribution :              99.2180 %

          ||T1||/||T2||                  :               0.0888

          Norm of Total Amplitude Vector :               0.6096


 +=============================================================================+
 | symmetry|  orbital index  |   Excitation Numbers             |   Amplitude  |
 |  Index  |   a   b   i   j |      NAI      NBJ |     NAIBJ    |              |
 +=============================================================================+
 | 2   2   |   1       1     |        9          |              |    0.027094  |
 | 2   2   |   2       1     |       10          |              |    0.019601  |
 | 3   3   |   1       1     |       11          |              |   -0.027094  |
 | 3   3   |   2       1     |       12          |              |    0.019601  |
 | 5   5   |   2       1     |       14          |              |    0.020252  |
 +-----------------------------------------------------------------------------+
 | 6 6 2 2 |   1   1   1   1 |       11       11 |          403 |   -0.196222  |
 | 7 6 3 2 |   1   1   1   1 |       14       11 |          439 |   -0.193911  |
 | 7 7 3 3 |   1   1   1   1 |       14       14 |          442 |   -0.196222  |
 +=============================================================================+


          Norm of Printed Amplitude Vector :             0.3424

          Printed all single excitations greater than 0.014738

          Printed all double excitations greater than 0.166014
            Norm of singles part:        0.5390662423E-01
            Norm of doubles part:        0.6072118536E+00
        Norm of r12 doubles part:        0.9694266495E+00
  

 *******************************************************************

 Ground state energy is target 

 Ecorr =                   -109.29021713006467564355

 *******************************************************************
     

   *******************************************************************
   *                                                                 *
   *<<<<<<<<   OUTPUT FROM PROPERTY AND SYMMETRY ANALYSIS   >>>>>>>>>*
   *                                                                 *
   *******************************************************************



                         +-------------------------------+
                         ! REQUESTED PROPERTY OPERATORS: !
                         +-------------------------------+

             Index   Oper. Label  Symmetry  Transp.  PDBS  Atom
             --------------------------------------------------
                1     HAM0            1        1      T      0
                2     XDIPLEN         2        1      F      0
                3     YDIPLEN         3        1      F      0
                4     ZDIPLEN         5        1      F      0
             --------------------------------------------------




                         +-------------------------------+
                         ! REQUESTED EXPECTATION VALUES: !
                         +-------------------------------+

                       Index   Oper. Label  Symmetry
                       -----------------------------
                       -----------------------------




                       +------------------------------------+
                       ! REQUESTED EFFECTIVE FOCK MATRICES: !
                       +------------------------------------+

                       Index   Oper. Label  Symmetry
                       -----------------------------
                       -----------------------------




                       +-----------------------------------+
                       ! REQUESTED FIRST ORDER XI VECTORS: !
                       +-----------------------------------+

             Index   Oper. Label  relaxed  Sym.     Frequency
             --------------------------------------------------
                1      XDIPLEN        F     2      0.000000D+00
                2      YDIPLEN        F     3      0.000000D+00
                3      ZDIPLEN        F     5      0.000000D+00
             --------------------------------------------------




                        +----------------------------------+
                        ! REQUESTED FIRST ORDER T VECTORS: !
                        +----------------------------------+

             Index   Oper. Label  relaxed  Sym.     Frequency
             --------------------------------------------------
                1      XDIPLEN        F     2      0.000000D+00
                2      YDIPLEN        F     3      0.000000D+00
                3      ZDIPLEN        F     5      0.000000D+00
             --------------------------------------------------




                       +------------------------------------+
                       ! REQUESTED FIRST ORDER ETA VECTORS: !
                       +------------------------------------+

             Index   Oper. Label  relaxed  Sym.     Frequency
             --------------------------------------------------
                1      XDIPLEN        F     2      0.000000D+00
                2      YDIPLEN        F     3      0.000000D+00
                3      ZDIPLEN        F     5      0.000000D+00
             --------------------------------------------------




                      +-------------------------------------+
                      ! REQUESTED FIRST ORDER ZETA VECTORS: !
                      +-------------------------------------+

             Index   Oper. Label  relaxed  Sym.     Frequency
             --------------------------------------------------
                1      XDIPLEN        F     2     -0.000000D+00
                2      YDIPLEN        F     3      0.000000D+00
                3      ZDIPLEN        F     5      0.000000D+00
             --------------------------------------------------




                      +--------------------------------------+
                      ! REQUESTED SECOND-ORDER XKSI VECTORS: !
                      +--------------------------------------+

     Index    Oper. Label  Symmetry  Frequency   Oper. Label  Symmetry  Frequency  Symmetry
     ----------------------------------------------------------------------
    1   XDIPLEN   2    -0.000000D+00   XDIPLEN   2     0.000000D+00  1
    2   YDIPLEN   3     0.000000D+00   YDIPLEN   3     0.000000D+00  1
    3   ZDIPLEN   5     0.000000D+00   ZDIPLEN   5     0.000000D+00  1
    4   XDIPLEN   2    -0.000000D+00   YDIPLEN   3     0.000000D+00  4
    5   XDIPLEN   2    -0.000000D+00   ZDIPLEN   5     0.000000D+00  6
    6   YDIPLEN   3    -0.000000D+00   ZDIPLEN   5     0.000000D+00  7
     ----------------------------------------------------------------------




                       +-----------------------------------+
                       ! REQUESTED SECOND-ORDER T VECTORS: !
                       +-----------------------------------+

     Index    Oper. Label  Symmetry  Frequency   Oper. Label  Symmetry  Frequency  Symmetry
     ----------------------------------------------------------------------
    1   XDIPLEN   2    -0.000000D+00   XDIPLEN   2     0.000000D+00  1
    2   YDIPLEN   3     0.000000D+00   YDIPLEN   3     0.000000D+00  1
    3   ZDIPLEN   5     0.000000D+00   ZDIPLEN   5     0.000000D+00  1
    4   XDIPLEN   2    -0.000000D+00   YDIPLEN   3     0.000000D+00  4
    5   XDIPLEN   2    -0.000000D+00   ZDIPLEN   5     0.000000D+00  6
    6   YDIPLEN   3    -0.000000D+00   ZDIPLEN   5     0.000000D+00  7
     ----------------------------------------------------------------------


      

    *******************************************************************
    *          SOLVING COUPLED CLUSTER RESPONSE EQUATIONS             *
    *******************************************************************



 
 +======================================================================+
 !                     RHS & ETA VECTORS TO COMPUTE:                    !
 +======================================================================+
 | TYPE | # VEC. |  NEEDED FOR:                                         |
 +----------------------------------------------------------------------+
 |  O1  |    3   |  first-order amplitude equations                     |
 |  X1  |    3   |  first-order multipliers equations                   |
 |  O2  |    6   |  second-order amplitude equations                    |
 +======================================================================+



 +======================================================================+
 !                       LINEAR EQUATIONS TO SOLVE:                     !
 +======================================================================+
 | TYPE | # VEC. |  EQUATION:                                           |
[...]
 | 5 1 3 1 |   2   1   1   2 |        9        5 |          403 |   -0.156318  |
 | 5 1 3 1 |   4   1   1   2 |       11        5 |          405 |    0.059880  |
 | 5 1 3 1 |   2   2   1   2 |        9        6 |          417 |   -0.055616  |
 | 3 1 5 1 |   2   1   1   1 |       14        1 |          352 |   -0.048764  |
 | 7 2 2 1 |   2   1   1   2 |        4        3 |          598 |   -0.079519  |
 | 6 2 3 1 |   2   2   1   2 |        7        4 |          610 |   -0.157847  |
 | 6 1 3 2 |   2   4   1   1 |        7        8 |          646 |   -0.058642  |
 +=============================================================================+


          Norm of Printed Amplitude Vector :             2.8342

          Printed all single excitations greater than 0.160872

          Printed all double excitations greater than 0.043564
            Norm of singles part:        0.2758063380E+01
            Norm of doubles part:        0.7468782381E+00
        Norm of r12 doubles part:        0.8051633061E+00

 Solution of CC response equations completed.


 *******************************************************************
 *                                                                 *
 *<<<<<<<<  OUTPUT FROM COUPLED CLUSTER LINEAR RESPONSE   >>>>>>>>>*
 *                                                                 *
 *<<<<<<<<     CALCULATION OF SECOND ORDER PROPERTIES     >>>>>>>>>*
 *                                                                 *
 *******************************************************************

 


   For the requested  3 second-order properties
         -   3 F matrix transformations with R1 vectors
         -   0 J matrix transformations with L1 vectors
         -   3 ETA and XKSI vector calculations 
         -   0 X intermediate calculations 
         -   0 2. order reortho./relax. contributions
   will be performed.




 +==================================================+
 |        F MATRIX TRANSFORMATION SECTION           |
 |    (result used to calculate dot products)       |
 +--------------------------------------------------+
 | time for zero order intermediat.:      0.00 secs.|
 | time for  1 sets of left interm.:      0.00 secs.|
 | time for  3 sets of right inter.:      0.00 secs.|
 | time for  3 sets of 2. ord. int.:      0.01 secs.|
 | intermediates calculated in   1 batches          |
 +--------------------------------------------------+
 | L vector | R vector |  # products  |             |
 |  L0  No. |  R1  No. |   with R1    |  time/secs  |
 +--------------------------------------------------+
 |     0    |     1    |      1       |       0.00  |
 |     0    |     2    |      1       |       0.00  |
 |     0    |     3    |      1       |       0.00  |
 +--------------------------------------------------+
 | total time for   3 F transforms.:      0.03 secs.|
 +==================================================+



>>> Time used for    3 F matrix transformations:        0.03 seconds.

>>> Time used for    3 O1/X1 vector calculation:        0.01 seconds.

>>> Total time for   9 linear response function:        0.03 seconds.


            +---------------------------------------------------------+
            !      FINAL CCSD RESULTS FOR THE SECOND-ORDER PROPERTIES !
            +---------------------------------------------------------+


  A operator                  B operator                     property 
------------------------------------------------------------------------

 XDIPLEN  (unrel.) -0.0000   XDIPLEN  (unrel.)  0.0000      5.7944129    

 XDIPLEN  (unrel.)    -.-    YDIPLEN  (unrel.)    -.-          ---

 XDIPLEN  (unrel.)    -.-    ZDIPLEN  (unrel.)    -.-          ---

 YDIPLEN  (unrel.)    -.-    XDIPLEN  (unrel.)    -.-          ---

 YDIPLEN  (unrel.) -0.0000   YDIPLEN  (unrel.)  0.0000      5.7944129    

 YDIPLEN  (unrel.)    -.-    ZDIPLEN  (unrel.)    -.-          ---

 ZDIPLEN  (unrel.)    -.-    XDIPLEN  (unrel.)    -.-          ---

 ZDIPLEN  (unrel.)    -.-    YDIPLEN  (unrel.)    -.-          ---

 ZDIPLEN  (unrel.) -0.0000   ZDIPLEN  (unrel.)  0.0000      12.826599    
------------------------------------------------------------------------



 *******************************************************************
 *                                                                 *
 *<<<<<<<<<  OUTPUT FROM COUPLED CLUSTER CUBIC RESPONSE   >>>>>>>>>*
 *                                                                 *
 *<<<<<<<<     CALCULATION OF CC HYPERPOLARIZABILITIES    >>>>>>>>>*
 *                                                                 *
 *******************************************************************



   For the requested  21 cubic response functions 
         -   6 H^0 matrix transformations 
         -   6 G^0 matrix transformations 
         -   9 G^A matrix transformations 
         -   6 F^0 matrix transformations 
         -   9 F^A matrix transformations 
         -   9 F^0{O} matrix transformations 
         -  15 F^A{O} matrix transformations 
         -   9 ETA^A{O} vector calculations 
   will be performed.



>>> Time used for    6 H matrix transformations:           0.00 seconds.


 +==================================================+
 |        G MATRIX TRANSFORMATION SECTION           |
 |    (result used to calculate dot products)       |
 +--------------------------------------------------+
 | L vec. | R vec. | R vec. |  # prod. |            |
 | L0  No.| R1  No.| R1  No.| with R2  | time/secs  |
 +--------------------------------------------------+
 |     0  |     1  |     1  |      3  |       0.00  |
 |     0  |     1  |     2  |      1  |       0.00  |
 |     0  |     2  |     2  |      3  |       0.01  |
 |     0  |     1  |     3  |      1  |       0.00  |
 |     0  |     3  |     3  |      3  |       0.00  |
 |     0  |     2  |     3  |      1  |       0.00  |
 +--------------------------------------------------+
 | total time for   6 G transforms.:      0.02 secs.|
 +==================================================+




 +==================================================+
 |    GENERALIZED G MATRIX TRANSFORMATION SECTION   |
 |    (result used to calculate dot products)       |
 +--------------------------------------------------+
 | L vec. | R vec. | R vec. |  # prod. |            |
 | L1  No.| R1  No.| R1  No.| with R1  | time/secs  |
 +--------------------------------------------------+
 |     1  |     1  |     1  |      1  |       0.00  |
 |     1  |     1  |     2  |      1  |       0.00  |
 |     2  |     1  |     1  |      1  |       0.00  |
 |     1  |     1  |     3  |      1  |       0.00  |
 |     3  |     1  |     1  |      1  |       0.00  |
 |     2  |     2  |     2  |      1  |       0.00  |
 |     2  |     2  |     3  |      1  |       0.01  |
 |     3  |     2  |     2  |      1  |       0.00  |
 |     3  |     3  |     3  |      1  |       0.00  |
 +--------------------------------------------------+
 | total time for   9 G transforms.:      0.03 secs.|
 +==================================================+



>>> Time used for   15 G matrix transformations:           0.06 seconds.


 +==================================================+
 |        F MATRIX TRANSFORMATION SECTION           |
 |    (result used to calculate dot products)       |
 +--------------------------------------------------+
 | time for zero order intermediat.:      0.00 secs.|
 | time for  1 sets of left interm.:      0.00 secs.|
 | time for  6 sets of right inter.:      0.01 secs.|
 | time for  6 sets of 2. ord. int.:      0.01 secs.|
 | intermediates calculated in   1 batches          |
 +--------------------------------------------------+
 | L vector | R vector |  # products  |             |
 |  L0  No. |  R2  No. |   with R2    |  time/secs  |
 +--------------------------------------------------+
 |     0    |     1    |      3       |       0.00  |
 |     0    |     4    |      1       |       0.00  |
 |     0    |     5    |      1       |       0.00  |
 |     0    |     2    |      2       |       0.00  |
 |     0    |     6    |      1       |       0.00  |
 |     0    |     3    |      1       |       0.00  |
 +--------------------------------------------------+
 | total time for   6 F transforms.:      0.05 secs.|
 +==================================================+




 +==================================================+
 |        F MATRIX TRANSFORMATION SECTION           |
 |    (result used to calculate dot products)       |
 +--------------------------------------------------+
 | time for zero order intermediat.:      0.00 secs.|
 | time for  3 sets of left interm.:      0.00 secs.|
 | time for  3 sets of right inter.:      0.00 secs.|
 | time for  9 sets of 2. ord. int.:      0.02 secs.|
 | intermediates calculated in   1 batches          |
 +--------------------------------------------------+
 | L vector | R vector |  # products  |             |
 |  L1  No. |  R1  No. |   with R2    |  time/secs  |
 +--------------------------------------------------+
 |     1    |     1    |      3       |       0.00  |
 |     1    |     2    |      1       |       0.00  |
 |     2    |     1    |      1       |       0.00  |
 |     2    |     2    |      3       |       0.00  |
 |     1    |     3    |      1       |       0.00  |
 |     3    |     1    |      1       |       0.00  |
 |     3    |     3    |      3       |       0.00  |
 |     2    |     3    |      1       |       0.00  |
 |     3    |     2    |      1       |       0.00  |
 +--------------------------------------------------+
 | total time for   9 F transforms.:      0.06 secs.|
 +==================================================+



>>> Time used for   15 F matrix transformations:           0.10 seconds.

>>> Time used for   24 F{O} matrix transformations:        0.02 seconds.

>>> Time used for    9 ETA{O} vector calculations :        0.01 seconds.

>>> Total time for  81 cubic response functions:           0.19 seconds.


       +-------------------------------------------------------------------+
       !           FINAL CCSD RESULTS FOR THE SECOND HYPERPOLARIZABILITIES !
       +-------------------------------------------------------------------+


  A operator        B operator        C operator        D operator           gamma
--------------------------------------------------------------------------------------

 XDIPLEN -0.0000   XDIPLEN  0.0000   XDIPLEN  0.0000   XDIPLEN  0.0000      19.247463    

 XDIPLEN    -.-    XDIPLEN    -.-    XDIPLEN    -.-    YDIPLEN    -.-          ---
 XDIPLEN    -.-    XDIPLEN    -.-    XDIPLEN    -.-    ZDIPLEN    -.-          ---
 XDIPLEN    -.-    XDIPLEN    -.-    YDIPLEN    -.-    XDIPLEN    -.-          ---

 XDIPLEN -0.0000   XDIPLEN  0.0000   YDIPLEN  0.0000   YDIPLEN  0.0000      6.4158211    

 XDIPLEN    -.-    XDIPLEN    -.-    YDIPLEN    -.-    ZDIPLEN    -.-          ---
 XDIPLEN    -.-    XDIPLEN    -.-    ZDIPLEN    -.-    XDIPLEN    -.-          ---
 XDIPLEN    -.-    XDIPLEN    -.-    ZDIPLEN    -.-    YDIPLEN    -.-          ---

 XDIPLEN -0.0000   XDIPLEN  0.0000   ZDIPLEN  0.0000   ZDIPLEN  0.0000      4.5818019    

 XDIPLEN    -.-    YDIPLEN    -.-    XDIPLEN    -.-    XDIPLEN    -.-          ---

 XDIPLEN -0.0000   YDIPLEN  0.0000   XDIPLEN  0.0000   YDIPLEN  0.0000      6.4158211    

 XDIPLEN    -.-    YDIPLEN    -.-    XDIPLEN    -.-    ZDIPLEN    -.-          ---

 XDIPLEN -0.0000   YDIPLEN  0.0000   YDIPLEN  0.0000   XDIPLEN  0.0000      6.4158211    

 XDIPLEN    -.-    YDIPLEN    -.-    YDIPLEN    -.-    YDIPLEN    -.-          ---
 XDIPLEN    -.-    YDIPLEN    -.-    YDIPLEN    -.-    ZDIPLEN    -.-          ---
 XDIPLEN    -.-    YDIPLEN    -.-    ZDIPLEN    -.-    XDIPLEN    -.-          ---
 XDIPLEN    -.-    YDIPLEN    -.-    ZDIPLEN    -.-    YDIPLEN    -.-          ---
 XDIPLEN    -.-    YDIPLEN    -.-    ZDIPLEN    -.-    ZDIPLEN    -.-          ---
 XDIPLEN    -.-    ZDIPLEN    -.-    XDIPLEN    -.-    XDIPLEN    -.-          ---
 XDIPLEN    -.-    ZDIPLEN    -.-    XDIPLEN    -.-    YDIPLEN    -.-          ---

 XDIPLEN -0.0000   ZDIPLEN  0.0000   XDIPLEN  0.0000   ZDIPLEN  0.0000      4.5818019    

 XDIPLEN    -.-    ZDIPLEN    -.-    YDIPLEN    -.-    XDIPLEN    -.-          ---
 XDIPLEN    -.-    ZDIPLEN    -.-    YDIPLEN    -.-    YDIPLEN    -.-          ---
 XDIPLEN    -.-    ZDIPLEN    -.-    YDIPLEN    -.-    ZDIPLEN    -.-          ---

 XDIPLEN -0.0000   ZDIPLEN  0.0000   ZDIPLEN  0.0000   XDIPLEN  0.0000      4.5818019    

 XDIPLEN    -.-    ZDIPLEN    -.-    ZDIPLEN    -.-    YDIPLEN    -.-          ---
 XDIPLEN    -.-    ZDIPLEN    -.-    ZDIPLEN    -.-    ZDIPLEN    -.-          ---
 YDIPLEN    -.-    XDIPLEN    -.-    XDIPLEN    -.-    XDIPLEN    -.-          ---

 YDIPLEN -0.0000   XDIPLEN  0.0000   XDIPLEN  0.0000   YDIPLEN  0.0000      6.4158211    

 YDIPLEN    -.-    XDIPLEN    -.-    XDIPLEN    -.-    ZDIPLEN    -.-          ---

 YDIPLEN -0.0000   XDIPLEN  0.0000   YDIPLEN  0.0000   XDIPLEN  0.0000      6.4158211    

 YDIPLEN    -.-    XDIPLEN    -.-    YDIPLEN    -.-    YDIPLEN    -.-          ---
 YDIPLEN    -.-    XDIPLEN    -.-    YDIPLEN    -.-    ZDIPLEN    -.-          ---
 YDIPLEN    -.-    XDIPLEN    -.-    ZDIPLEN    -.-    XDIPLEN    -.-          ---
 YDIPLEN    -.-    XDIPLEN    -.-    ZDIPLEN    -.-    YDIPLEN    -.-          ---
 YDIPLEN    -.-    XDIPLEN    -.-    ZDIPLEN    -.-    ZDIPLEN    -.-          ---

 YDIPLEN -0.0000   YDIPLEN  0.0000   XDIPLEN  0.0000   XDIPLEN  0.0000      6.4158211    

 YDIPLEN    -.-    YDIPLEN    -.-    XDIPLEN    -.-    YDIPLEN    -.-          ---
 YDIPLEN    -.-    YDIPLEN    -.-    XDIPLEN    -.-    ZDIPLEN    -.-          ---
 YDIPLEN    -.-    YDIPLEN    -.-    YDIPLEN    -.-    XDIPLEN    -.-          ---

 YDIPLEN -0.0000   YDIPLEN  0.0000   YDIPLEN  0.0000   YDIPLEN  0.0000      19.247463    

 YDIPLEN    -.-    YDIPLEN    -.-    YDIPLEN    -.-    ZDIPLEN    -.-          ---
 YDIPLEN    -.-    YDIPLEN    -.-    ZDIPLEN    -.-    XDIPLEN    -.-          ---
 YDIPLEN    -.-    YDIPLEN    -.-    ZDIPLEN    -.-    YDIPLEN    -.-          ---

 YDIPLEN -0.0000   YDIPLEN  0.0000   ZDIPLEN  0.0000   ZDIPLEN  0.0000      4.5818019    

 YDIPLEN    -.-    ZDIPLEN    -.-    XDIPLEN    -.-    XDIPLEN    -.-          ---
 YDIPLEN    -.-    ZDIPLEN    -.-    XDIPLEN    -.-    YDIPLEN    -.-          ---
 YDIPLEN    -.-    ZDIPLEN    -.-    XDIPLEN    -.-    ZDIPLEN    -.-          ---
 YDIPLEN    -.-    ZDIPLEN    -.-    YDIPLEN    -.-    XDIPLEN    -.-          ---
 YDIPLEN    -.-    ZDIPLEN    -.-    YDIPLEN    -.-    YDIPLEN    -.-          ---

 YDIPLEN -0.0000   ZDIPLEN  0.0000   YDIPLEN  0.0000   ZDIPLEN  0.0000      4.5818019    

 YDIPLEN    -.-    ZDIPLEN    -.-    ZDIPLEN    -.-    XDIPLEN    -.-          ---

 YDIPLEN -0.0000   ZDIPLEN  0.0000   ZDIPLEN  0.0000   YDIPLEN  0.0000      4.5818019    

 YDIPLEN    -.-    ZDIPLEN    -.-    ZDIPLEN    -.-    ZDIPLEN    -.-          ---
 ZDIPLEN    -.-    XDIPLEN    -.-    XDIPLEN    -.-    XDIPLEN    -.-          ---
 ZDIPLEN    -.-    XDIPLEN    -.-    XDIPLEN    -.-    YDIPLEN    -.-          ---

 ZDIPLEN -0.0000   XDIPLEN  0.0000   XDIPLEN  0.0000   ZDIPLEN  0.0000      4.5818019    

 ZDIPLEN    -.-    XDIPLEN    -.-    YDIPLEN    -.-    XDIPLEN    -.-          ---
 ZDIPLEN    -.-    XDIPLEN    -.-    YDIPLEN    -.-    YDIPLEN    -.-          ---
 ZDIPLEN    -.-    XDIPLEN    -.-    YDIPLEN    -.-    ZDIPLEN    -.-          ---

 ZDIPLEN -0.0000   XDIPLEN  0.0000   ZDIPLEN  0.0000   XDIPLEN  0.0000      4.5818019    

 ZDIPLEN    -.-    XDIPLEN    -.-    ZDIPLEN    -.-    YDIPLEN    -.-          ---
 ZDIPLEN    -.-    XDIPLEN    -.-    ZDIPLEN    -.-    ZDIPLEN    -.-          ---
 ZDIPLEN    -.-    YDIPLEN    -.-    XDIPLEN    -.-    XDIPLEN    -.-          ---
 ZDIPLEN    -.-    YDIPLEN    -.-    XDIPLEN    -.-    YDIPLEN    -.-          ---
 ZDIPLEN    -.-    YDIPLEN    -.-    XDIPLEN    -.-    ZDIPLEN    -.-          ---
 ZDIPLEN    -.-    YDIPLEN    -.-    YDIPLEN    -.-    XDIPLEN    -.-          ---
 ZDIPLEN    -.-    YDIPLEN    -.-    YDIPLEN    -.-    YDIPLEN    -.-          ---

 ZDIPLEN -0.0000   YDIPLEN  0.0000   YDIPLEN  0.0000   ZDIPLEN  0.0000      4.5818019    

 ZDIPLEN    -.-    YDIPLEN    -.-    ZDIPLEN    -.-    XDIPLEN    -.-          ---

 ZDIPLEN -0.0000   YDIPLEN  0.0000   ZDIPLEN  0.0000   YDIPLEN  0.0000      4.5818019    

 ZDIPLEN    -.-    YDIPLEN    -.-    ZDIPLEN    -.-    ZDIPLEN    -.-          ---

 ZDIPLEN -0.0000   ZDIPLEN  0.0000   XDIPLEN  0.0000   XDIPLEN  0.0000      4.5818019    

 ZDIPLEN    -.-    ZDIPLEN    -.-    XDIPLEN    -.-    YDIPLEN    -.-          ---
 ZDIPLEN    -.-    ZDIPLEN    -.-    XDIPLEN    -.-    ZDIPLEN    -.-          ---
 ZDIPLEN    -.-    ZDIPLEN    -.-    YDIPLEN    -.-    XDIPLEN    -.-          ---

 ZDIPLEN -0.0000   ZDIPLEN  0.0000   YDIPLEN  0.0000   YDIPLEN  0.0000      4.5818019    

 ZDIPLEN    -.-    ZDIPLEN    -.-    YDIPLEN    -.-    ZDIPLEN    -.-          ---
 ZDIPLEN    -.-    ZDIPLEN    -.-    ZDIPLEN    -.-    XDIPLEN    -.-          ---
 ZDIPLEN    -.-    ZDIPLEN    -.-    ZDIPLEN    -.-    YDIPLEN    -.-          ---

 ZDIPLEN -0.0000   ZDIPLEN  0.0000   ZDIPLEN  0.0000   ZDIPLEN  0.0000     -2.2275500    
--------------------------------------------------------------------------------------
---------------------------------------------------------------------------
  

 *******************************************************************************
 *******************************************************************************
 *                                                                             *
 *                                                                             *
 *                   SUMMARY OF COUPLED CLUSTER CALCULATION                    *
 *                                                                             *
 *                                                                             *
 *******************************************************************************
 *******************************************************************************

                                                                                
                                                                                
            Total SCF   energy:                  -108.9541307667                
            Total MP2-R12/B energy:              -109.2968962535                
            Total CCSD(R12)/B energy:            -109.2902171301                
  

 *******************************************************************************
 *******************************************************************************
 *                                                                             *
 *                                                                             *
 *                      END OF COUPLED CLUSTER CALCULATION                     *
 *                                                                             *
 *                                                                             *
 *******************************************************************************
 *******************************************************************************


 >>>> CPU and wall time for CC :       7.793      10.085

 
     Date and time (Linux)  : Sun Sep  8 21:10:27 2013
     Host name              : lpqlx131.ups-tlse.fr                    


                      .-------------------------------------.
                      | End of Coupled Cluster Section (CC) |
                      `-------------------------------------'

 >>>> Total CPU  time used in DALTON:   8.79 seconds
 >>>> Total wall time used in DALTON:  11.09 seconds

 
     Date and time (Linux)  : Sun Sep  8 21:10:27 2013
     Host name              : lpqlx131.ups-tlse.fr                    
