

     ************************************************************************
     *************** Dalton - An Electronic Structure Program ***************
     ************************************************************************

    This is output from DALTON (Release Dalton2013 patch 0)
   ----------------------------------------------------------------------------
    NOTE:
     
    Dalton is an experimental code for the evaluation of molecular
    properties using (MC)SCF, DFT, CI, and CC wave functions.
    The authors accept no responsibility for the performance of
    the code or for the correctness of the results.
     
    The code (in whole or part) is provided under a licence and
    is not to be reproduced for further distribution without
    the written permission of the authors or their representatives.
     
    See the home page "http://daltonprogram.org" for further information.
     
    If results obtained with this code are published,
    the appropriate citations would be both of:
     
       K. Aidas, C. Angeli, K. L. Bak, V. Bakken, R. Bast,
       L. Boman, O. Christiansen, R. Cimiraglia, S. Coriani,
       P. Dahle, E. K. Dalskov, U. Ekstroem, T. Enevoldsen,
       J. J. Eriksen, P. Ettenhuber, B. Fernandez, L. Ferrighi,
       H. Fliegl, L. Frediani, K. Hald, A. Halkier, C. Haettig,
       H. Heiberg, T. Helgaker, A. C. Hennum, H. Hettema,
       E. Hjertenaes, S. Hoest, I.-M. Hoeyvik, M. F. Iozzi,
       B. Jansik, H. J. Aa. Jensen, D. Jonsson, P. Joergensen,
       J. Kauczor, S. Kirpekar, T. Kjaergaard, W. Klopper,
       S. Knecht, R. Kobayashi, H. Koch, J. Kongsted, A. Krapp,
       K. Kristensen, A. Ligabue, O. B. Lutnaes, J. I. Melo,
       K. V. Mikkelsen, R. H. Myhre, C. Neiss, C. B. Nielsen,
       P. Norman, J. Olsen, J. M. H. Olsen, A. Osted,
       M. J. Packer, F. Pawlowski, T. B. Pedersen, P. F. Provasi,
       S. Reine, Z. Rinkevicius, T. A. Ruden, K. Ruud, V. Rybkin,
       P. Salek, C. C. M. Samson, A. Sanchez de Meras, T. Saue,
       S. P. A. Sauer, B. Schimmelpfennig, K. Sneskov,
       A. H. Steindal, K. O. Sylvester-Hvid, P. R. Taylor,
       A. M. Teale, E. I. Tellgren, D. P. Tew, A. J. Thorvaldsen,
       L. Thoegersen, O. Vahtras, M. A. Watson, D. J. D. Wilson,
       M. Ziolkowski and H. Agren,
       "The Dalton quantum chemistry program system",
       WIREs Comput. Mol. Sci. 2013. (doi: 10.1002/wcms.1172)
    
    and
    
       Dalton, a Molecular Electronic Structure Program,
       Release DALTON2013.0 (2013), see http://daltonprogram.org
   ----------------------------------------------------------------------------

    Authors in alphabetical order (major contribution(s) in parenthesis):

  Kestutis Aidas,           Vilnius University,           Lithuania   (QM/MM)
  Celestino Angeli,         University of Ferrara,        Italy       (NEVPT2)
  Keld L. Bak,              UNI-C,                        Denmark     (AOSOPPA, non-adiabatic coupling, magnetic properties)
  Vebjoern Bakken,          University of Oslo,           Norway      (DALTON; geometry optimizer, symmetry detection)
  Radovan Bast,             KTH Stockholm                 Sweden      (DALTON installation and execution frameworks)
  Linus Boman,              NTNU,                         Norway      (Cholesky decomposition and subsystems)
  Ove Christiansen,         Aarhus University,            Denmark     (CC module)
  Renzo Cimiraglia,         University of Ferrara,        Italy       (NEVPT2)
  Sonia Coriani,            University of Trieste,        Italy       (CC module, MCD in RESPONS)
  Paal Dahle,               University of Oslo,           Norway      (Parallelization)
  Erik K. Dalskov,          UNI-C,                        Denmark     (SOPPA)
  Thomas Enevoldsen,        Univ. of Southern Denmark,    Denmark     (SOPPA)
  Janus J. Eriksen,         Aarhus University,            Denmark     (PE-MP2/SOPPA, TDA)
  Berta Fernandez,          U. of Santiago de Compostela, Spain       (doublet spin, ESR in RESPONS)
  Lara Ferrighi,            Aarhus University,            Denmark     (PCM Cubic response)
  Heike Fliegl,             University of Oslo,           Norway      (CCSD(R12))
  Luca Frediani,            UiT The Arctic U. of Norway,  Norway      (PCM)
  Bin Gao,                  UiT The Arctic U. of Norway,  Norway      (Gen1Int library)
  Christof Haettig,         Ruhr-University Bochum,       Germany     (CC module)
  Kasper Hald,              Aarhus University,            Denmark     (CC module)
  Asger Halkier,            Aarhus University,            Denmark     (CC module)
  Hanne Heiberg,            University of Oslo,           Norway      (geometry analysis, selected one-electron integrals)
  Trygve Helgaker,          University of Oslo,           Norway      (DALTON; ABACUS, ERI, DFT modules, London, and much more)
  Alf Christian Hennum,     University of Oslo,           Norway      (Parity violation)
  Hinne Hettema,            University of Auckland,       New Zealand (quadratic response in RESPONS; SIRIUS supersymmetry)
  Eirik Hjertenaes,         NTNU,                         Norway      (Cholesky decomposition)
  Maria Francesca Iozzi,    University of Oslo,           Norway      (RPA)
  Brano Jansik              Technical Univ. of Ostrava    Czech Rep.  (DFT cubic response)
  Hans Joergen Aa. Jensen,  Univ. of Southern Denmark,    Denmark     (DALTON; SIRIUS, RESPONS, ABACUS modules, London, and much more)
  Dan Jonsson,              UiT The Arctic U. of Norway,  Norway      (cubic response in RESPONS module)
  Poul Joergensen,          Aarhus University,            Denmark     (RESPONS, ABACUS, and CC modules)
  Joanna Kauczor,           Linkoeping University,        Sweden      (Complex polarization propagator (CPP) module)
  Sheela Kirpekar,          Univ. of Southern Denmark,    Denmark     (Mass-velocity & Darwin integrals)
  Wim Klopper,              KIT Karlsruhe,                Germany     (R12 code in CC, SIRIUS, and ABACUS modules)
  Stefan Knecht,            ETH Zurich,                   Switzerland (Parallel CI and MCSCF)
  Rika Kobayashi,           Australian National Univ.,    Australia   (DIIS in CC, London in MCSCF)
  Henrik Koch,              NTNU,                         Norway      (CC module, Cholesky decomposition)
  Jacob Kongsted,           Univ. of Southern Denmark,    Denmark     (Polarizable embedding, QM/MM)
  Andrea Ligabue,           University of Modena,         Italy       (CTOCD, AOSOPPA)
  Ola B. Lutnaes,           University of Oslo,           Norway      (DFT Hessian)
  Juan I. Melo,             University of Buenos Aires,   Argentina   (LRESC, Relativistic Effects on NMR Shieldings)
  Kurt V. Mikkelsen,        University of Copenhagen,     Denmark     (MC-SCRF and QM/MM)
  Rolf H. Myhre,            NTNU,                         Norway      (Cholesky, subsystems and ECC2)
  Christian Neiss,          Univ. Erlangen-Nuernberg,     Germany     (CCSD(R12))
  Christian B. Nielsen,     University of Copenhagen,     Denmark     (QM/MM)
  Patrick Norman,           Linkoeping University,        Sweden      (Cubic response and complex response in RESPONS)
  Jeppe Olsen,              Aarhus University,            Denmark     (SIRIUS CI/density modules)
  Jogvan Magnus H. Olsen,   Univ. of Southern Denmark,    Denmark     (Polarizable embedding, PE library, QM/MM)
  Anders Osted,             Copenhagen University,        Denmark     (QM/MM)
  Martin J. Packer,         University of Sheffield,      UK          (SOPPA)
  Filip Pawlowski,          Kazimierz Wielki University   Poland      (CC3)
  Thomas B. Pedersen,       University of Oslo,           Norway      (Cholesky decomposition)
  Patricio F. Provasi,      University of Northeastern,   Argentina   (Analysis of coupling constants in localized orbitals)
  Zilvinas Rinkevicius,     KTH Stockholm,                Sweden      (open-shell DFT, ESR)
  Elias Rudberg,            KTH Stockholm,                Sweden      (DFT grid and basis info)
  Torgeir A. Ruden,         University of Oslo,           Norway      (Numerical derivatives in ABACUS)
  Kenneth Ruud,             UiT The Arctic U. of Norway,  Norway      (DALTON; ABACUS magnetic properties and  much more)
  Pawel Salek,              KTH Stockholm,                Sweden      (DALTON; DFT code)
  Claire C. M. Samson       University of Karlsruhe       Germany     (Boys localization, r12 integrals in ERI)
  Alfredo Sanchez de Meras, University of Valencia,       Spain       (CC module, Cholesky decomposition)
  Trond Saue,               Paul Sabatier University,     France      (direct Fock matrix construction)
  Stephan P. A. Sauer,      University of Copenhagen,     Denmark     (SOPPA(CCSD), SOPPA prop., AOSOPPA, vibrational g-factors)
  Bernd Schimmelpfennig,    Forschungszentrum Karlsruhe,  Germany     (AMFI module)
  Kristian Sneskov,         Aarhus University,            Denmark     (QM/MM, PE-CC)
  Arnfinn H. Steindal,      UiT The Arctic U. of Norway,  Norway      (parallel QM/MM)
  K. O. Sylvester-Hvid,     University of Copenhagen,     Denmark     (MC-SCRF)
  Peter R. Taylor,          VLSCI/Univ. of Melbourne,     Australia   (Symmetry handling ABACUS, integral transformation)
  Andrew M. Teale,          University of Nottingham,     England     (DFT-AC, DFT-D)
  David P. Tew,             University of Bristol,        England     (CCSD(R12))
  Olav Vahtras,             KTH Stockholm,                Sweden      (triplet response, spin-orbit, ESR, TDDFT, open-shell DFT)
  David J. Wilson,          La Trobe University,          Australia   (DFT Hessian and DFT magnetizabilities)
  Hans Agren,               KTH Stockholm,                Sweden      (SIRIUS module, RESPONS, MC-SCRF solvation model)
 --------------------------------------------------------------------------------

     Date and time (Linux)  : Tue Sep 17 22:39:26 2013
     Host name              : TheSocialist                            

 * Work memory size             :    64000000 =  488.28 megabytes.

 * Directories for basis set searches:
   1) /home/magnus/Projects/dalton_devel/dalton/DALTON/test/2013-09-17T22_38-testjob-pid-10519
   2) /home/magnus/Projects/dalton_devel/dalton/build/basis


Compilation information
-----------------------

 Who compiled             | magnus
 Host                     | TheSocialist
 System                   | Linux-3.10.11-200.fc19.x86_64
 CMake generator          | Unix Makefiles
 Processor                | x86_64
 64-bit integers          | OFF
 MPI                      | OFF
 Fortran compiler         | /usr/bin/gfortran
 Fortran compiler version | GNU Fortran (GCC) 4.8.1 20130603 (Red Hat 4.8.1-1)
 C compiler               | /usr/lib64/ccache/gcc
 C compiler version       | gcc (GCC) 4.8.1 20130603 (Red Hat 4.8.1-1)
 C++ compiler             | /usr/lib64/ccache/g++
 C++ compiler version     | g++ (GCC) 4.8.1 20130603 (Red Hat 4.8.1-1)
 BLAS                     | /lib64/libblas.so
 LAPACK                   | /lib64/liblapack.so
 Static linking           | OFF
 Last Git revision        | 125c293ec00a6e285dc76690c5a7c9e35d3b061c
 Configuration time       | 2013-09-17 22:19:49.616906


   Content of the .dal input file
 ----------------------------------

**DALTON                                          
.RUN RESPONSE                                     
.PEQM                                             
**WAVE FUNCTIONS                                  
.HF                                               
.MP2                                              
**RESPONSE                                        
.SOPPA                                            
*LINEAR                                           
.SINGLE RESIDUE                                   
.DIPLEN                                           
.ROOTS                                            
 2                                                
**END OF                                          


   Content of the .mol file
 ----------------------------

BASIS                                                                          
3-21G                                                                          
Acrolein                                                                       
------------------------                                                       
AtomTypes=3 NoSymmetry Angstrom                                                
Charge=6.0 Atoms=3                                                             
C             -0.145335   -0.546770    0.000607                                
C              1.274009   -0.912471   -0.000167                                
C              1.630116   -2.207690   -0.000132                                
Charge=8.0 Atoms=1                                                             
O             -0.560104    0.608977    0.000534                                
Charge=1.0 Atoms=4                                                             
H             -0.871904   -1.386459    0.001253                                
H              2.004448   -0.101417   -0.000710                                
H              0.879028   -3.000685    0.000484                                
H              2.675323   -2.516779   -0.000673                                


       *******************************************************************
       *********** Output from DALTON general input processing ***********
       *******************************************************************

 --------------------------------------------------------------------------------
   Overall default print level:    0
   Print level for DALTON.STAT:    1

    HERMIT 1- and 2-electron integral sections will be executed
    "Old" integral transformation used (limited to max 255 basis functions)
    Wave function sections will be executed (SIRIUS module)
    Dynamic molecular response properties section will be executed (RESPONSE module)
    Environment is modeled using polarizable embedding scheme (PE library)
 --------------------------------------------------------------------------------


   ****************************************************************************
   *************** Output of molecule and basis set information ***************
   ****************************************************************************


    The two title cards from your ".mol" input:
    ------------------------------------------------------------------------
 1: Acrolein                                                                
 2: ------------------------                                                
    ------------------------------------------------------------------------

  Coordinates are entered in Angstrom and converted to atomic units.
          - Conversion factor : 1 bohr = 0.52917721 A

  Atomic type no.    1
  --------------------
  Nuclear charge:   6.00000
  Number of symmetry independent centers:    3
  Number of basis sets to read;    2
  Basis set file used for this atomic type with Z =   6 :
     "/home/magnus/Projects/dalton_devel/dalton/build/basis/3-21G"

  Info about the basis set file: your basis has no documentation.
  Basis set: 3-21G                                                                           

  Atomic type no.    2
  --------------------
  Nuclear charge:   8.00000
  Number of symmetry independent centers:    1
  Number of basis sets to read;    2
  Basis set file used for this atomic type with Z =   8 :
     "/home/magnus/Projects/dalton_devel/dalton/build/basis/3-21G"

  Info about the basis set file: your basis has no documentation.
  Basis set: 3-21G                                                                           

  Atomic type no.    3
  --------------------
  Nuclear charge:   1.00000
  Number of symmetry independent centers:    4
  Number of basis sets to read;    2
  Basis set file used for this atomic type with Z =   1 :
     "/home/magnus/Projects/dalton_devel/dalton/build/basis/3-21G"

  Info about the basis set file: your basis has no documentation.
  Basis set: 3-21G                                                                           


                         SYMGRP: Point group information
                         -------------------------------

Point group: C1 


                                 Isotopic Masses
                                 ---------------

                           C          12.000000
                           C          12.000000
                           C          12.000000
                           O          15.994915
                           H           1.007825
                           H           1.007825
                           H           1.007825
                           H           1.007825

                       Total mass:    56.026215 amu
                       Natural abundance:  96.446 %

 Center-of-mass coordinates (a.u.):    0.973773   -1.393790    0.000425


  Atoms and basis sets
  --------------------

  Number of atom types :    3
  Total number of atoms:    8

  Basis set used is "3-21G" from the basis set library.

  label    atoms   charge   prim   cont     basis
  ----------------------------------------------------------------------
  C           3    6.0000    15     9      [6s3p|3s2p]                                        
  O           1    8.0000    15     9      [6s3p|3s2p]                                        
  H           4    1.0000     3     2      [3s|2s]                                            
  ----------------------------------------------------------------------
  total:      8   30.0000    72    44
  ----------------------------------------------------------------------

  Threshold for neglecting AO integrals:  1.00D-12


  Cartesian Coordinates (a.u.)
  ----------------------------

  Total number of coordinates:   24
  C       :     1  x  -0.2746433464    2  y  -1.0332455534    3  z   0.0011470638
  C       :     4  x   2.4075280908    5  y  -1.7243202870    6  z  -0.0003155843
  C       :     7  x   3.0804727920    8  y  -4.1719294689    9  z  -0.0002494438
  O       :    10  x  -1.0584431615   11  y   1.1507997464   12  z   0.0010091138
  H       :    13  x  -1.6476597673   14  y  -2.6200277935   15  z   0.0023678268
  H       :    16  x   3.7878577518   17  y  -0.1916503544   18  z  -0.0013417055
  H       :    19  x   1.6611221762   20  y  -5.6704728374   21  z   0.0009146274
  H       :    22  x   5.0556277659   23  y  -4.7560230271   24  z  -0.0012717857


   Interatomic separations (in Angstrom):
   --------------------------------------

            C           C           C           O           H           H     
            ------      ------      ------      ------      ------      ------
 C     :    0.000000
 C     :    1.465700    0.000000
 C     :    2.431231    1.343281    0.000000
 O     :    1.227919    2.383018    3.568007    0.000000
 H     :    1.110397    2.197637    2.633349    2.019650    0.000000
 H     :    2.195429    1.091490    2.139278    2.661125    3.150355    0.000000
 H     :    2.659139    2.125241    1.092234    3.885970    2.381489    3.110036
 H     :    3.440501    2.130137    1.089951    4.498704    3.722962    2.506800

            H           H     
            ------      ------
 H     :    0.000000
 H     :    1.860334    0.000000


  Max    interatomic separation is    4.4987 Angstrom (    8.5013 Bohr)
  between atoms    8 and    4, "H     " and "O     ".

  Min HX interatomic separation is    1.0900 Angstrom (    2.0597 Bohr)

  Min YX interatomic separation is    1.2279 Angstrom (    2.3204 Bohr)


  Bond distances (Angstrom):
  --------------------------

                  atom 1     atom 2       distance
                  ------     ------       --------
  bond distance:  C          C            1.465700
  bond distance:  C          C            1.343281
  bond distance:  O          C            1.227919
  bond distance:  H          C            1.110397
  bond distance:  H          C            1.091490
  bond distance:  H          C            1.092234
  bond distance:  H          C            1.089951


  Bond angles (degrees):
  ----------------------

                  atom 1     atom 2     atom 3         angle
                  ------     ------     ------         -----
  bond angle:     C          C          O            124.190
  bond angle:     C          C          H            116.421
  bond angle:     O          C          H            119.389
  bond angle:     C          C          C            119.821
  bond angle:     C          C          H            117.558
  bond angle:     C          C          H            122.621
  bond angle:     C          C          H            121.182
  bond angle:     C          C          H            121.847
  bond angle:     H          C          H            116.971




 Principal moments of inertia (u*A**2) and principal axes
 --------------------------------------------------------

   IA      10.696865         -0.668732    0.743503    0.000230
   IB     108.794831          0.743503    0.668732   -0.000587
   IC     119.491696          0.000590    0.000221    1.000000


 Rotational constants
 --------------------

 The molecule is planar.

               A                   B                   C

          47245.5253           4645.2483           4229.4069 MHz
            1.575941            0.154949            0.141078 cm-1


@  Nuclear repulsion energy :  102.664846860515 Hartree

  Reading potential input file

  Polarizable embedding information
  ---------------------------------

    Number of classical sites:     10

    Multipole moments upto 3rd order.

    Dipole-dipole polarizabilities.

    Iterative solver for induced moments will be used
    with convergence threshold: 1.0E-08


                     .---------------------------------------.
                     | Starting in Integral Section (HERMIT) |
                     `---------------------------------------'



    *************************************************************************
    ****************** Output from HERMIT input processing ******************
    *************************************************************************



     ************************************************************************
     ************************** Output from HERINT **************************
     ************************************************************************


 Threshold for neglecting two-electron integrals:  1.00D-12
 Number of two-electron integrals written:      442378 ( 90.2% )
 Megabytes written:                              5.070

 >>>  Time used in TWOINT     is   0.33 seconds
 >>>> Total CPU  time used in HERMIT:   0.39 seconds
 >>>> Total wall time used in HERMIT:   0.40 seconds


                        .----------------------------------.
                        | End of Integral Section (HERMIT) |
                        `----------------------------------'



                   .--------------------------------------------.
                   | Starting in Wave Function Section (SIRIUS) |
                   `--------------------------------------------'


 *** Output from Huckel module :

     Using EWMO model:          T
     Using EHT  model:          F
     Number of Huckel orbitals each symmetry:   24

 EWMO - Energy Weighted Maximum Overlap - is a Huckel type method,
        which normally is better than Extended Huckel Theory.
 Reference: Linderberg and Ohrn, Propagators in Quantum Chemistry (Wiley, 1973)

 Huckel EWMO eigenvalues for symmetry :  1
          -20.684561     -11.357400     -11.351264     -11.346036      -1.724840
           -1.477979      -1.046134      -1.031570      -0.744448      -0.729231
           -0.672044      -0.551742      -0.540543      -0.516178      -0.438809
           -0.319925      -0.220785      -0.162868      -0.131432      -0.129120
           -0.123435      -0.114530      -0.093199      -0.085427

 **********************************************************************
 *SIRIUS* a direct, restricted step, second order MCSCF program       *
 **********************************************************************

 
     Date and time (Linux)  : Tue Sep 17 22:39:26 2013
     Host name              : TheSocialist                            

 Title lines from ".mol" input file:
     Acrolein                                                                
     ------------------------                                                

 Print level on unit LUPRI =   2 is   0
 Print level on unit LUW4  =   2 is   5

@    MP2, closed-shell Moeller-Plesset second-order calculation.

@    This is a combination run starting with
@              a restricted, closed shell Hartree-Fock calculation


 Initial molecular orbitals are obtained according to
 ".MOSTART EWMO  " input option

@    QM part is embedded in an environment :

@         Model: PE

     Wave function specification
     ============================

     Wave function environment is modeled using the
     polarizable embedding model (PE library).

@    For the wave function of type :      >>> PE-MP2 <<<
@    Number of closed shell electrons          30
@    Number of electrons in active shells       0
@    Total charge of the molecule               0

@    Spin multiplicity and 2 M_S                1         0
     Total number of symmetries                 1
@    Reference state symmetry                   1

     Orbital specifications
     ======================
     Abelian symmetry species          All |    1
                                       --- |  ---
@    Occupied SCF orbitals              15 |   15
     Secondary orbitals                 29 |   29
     Total number of orbitals           44 |   44
     Number of basis functions          44 |   44

     Maximum number of Fock   iterations      0
     Maximum number of DIIS   iterations     60
     Maximum number of QC-SCF iterations      0
     Threshold for SCF convergence     1.00D-06


 >>>>> DIIS optimization of Hartree-Fock <<<<<

 C1-DIIS algorithm; max error vectors =   10

 Iter      Total energy     Embedding energy      Error norm     Delta(E)
 -----------------------------------------------------------------------------
     (Precalculated two-electron integrals are transformed to P-supermatrix elements.
      Threshold for discarding integrals :  1.00D-12 )
@  1  -189.012077505     -4.685919893970E-02    3.32659D+00   -1.89D+02
      Virial theorem: -V/T =      2.005660
@      MULPOP C       0.87; C       0.33; C       0.42; O      -0.94; H      -0.20; H      -0.20; H      -0.13; H      -0.15; 
 -----------------------------------------------------------------------------
@  2  -189.427549244     -3.282263367503E-03    2.36435D+00   -4.15D-01
      Virial theorem: -V/T =      2.004927
@      MULPOP C      -0.38; C      -0.53; C      -0.54; O       0.23; H       0.25; H       0.36; H       0.30; H       0.31; 
 -----------------------------------------------------------------------------
@  3  -189.704928980     -3.260744674171E-02    4.51613D-01   -2.77D-01
      Virial theorem: -V/T =      2.001181
@      MULPOP C       0.43; C      -0.34; C      -0.34; O      -0.70; H       0.21; H       0.27; H       0.23; H       0.23; 
 -----------------------------------------------------------------------------
@  4  -189.714206605     -2.995203382821E-02    7.65727D-02   -9.28D-03
      Virial theorem: -V/T =      2.004152
@      MULPOP C       0.36; C      -0.36; C      -0.35; O      -0.63; H       0.23; H       0.29; H       0.23; H       0.24; 
 -----------------------------------------------------------------------------
@  5  -189.714746291     -3.030778035027E-02    1.91991D-02   -5.40D-04
      Virial theorem: -V/T =      2.003451
@      MULPOP C       0.37; C      -0.39; C      -0.37; O      -0.64; H       0.23; H       0.31; H       0.24; H       0.25; 
 -----------------------------------------------------------------------------
@  6  -189.714797619     -3.044587937285E-02    6.84128D-03   -5.13D-05
      Virial theorem: -V/T =      2.003445
@      MULPOP C       0.36; C      -0.39; C      -0.37; O      -0.64; H       0.23; H       0.31; H       0.24; H       0.25; 
 -----------------------------------------------------------------------------
@  7  -189.714804633     -3.048665594116E-02    3.14570D-03   -7.01D-06
      Virial theorem: -V/T =      2.003453
@      MULPOP C       0.37; C      -0.39; C      -0.37; O      -0.64; H       0.23; H       0.31; H       0.24; H       0.25; 
 -----------------------------------------------------------------------------
@  8  -189.714806011     -3.051219857721E-02    1.05026D-03   -1.38D-06
      Virial theorem: -V/T =      2.003454
@      MULPOP C       0.37; C      -0.39; C      -0.37; O      -0.64; H       0.23; H       0.31; H       0.24; H       0.25; 
 -----------------------------------------------------------------------------
@  9  -189.714806147     -3.051681847678E-02    3.61494D-04   -1.36D-07
      Virial theorem: -V/T =      2.003454
@      MULPOP C       0.37; C      -0.39; C      -0.37; O      -0.64; H       0.23; H       0.31; H       0.24; H       0.25; 
 -----------------------------------------------------------------------------
@ 10  -189.714806173     -3.051988840917E-02    8.47372D-05   -2.60D-08
      Virial theorem: -V/T =      2.003454
@      MULPOP C       0.37; C      -0.39; C      -0.37; O      -0.64; H       0.23; H       0.31; H       0.24; H       0.25; 
 -----------------------------------------------------------------------------
@ 11  -189.714806175     -3.052072670026E-02    1.44582D-05   -1.57D-09
      Virial theorem: -V/T =      2.003454
@      MULPOP C       0.37; C      -0.39; C      -0.37; O      -0.64; H       0.23; H       0.31; H       0.24; H       0.25; 
 -----------------------------------------------------------------------------
@ 12  -189.714806175     -3.052077014407E-02    4.02739D-06   -3.23D-11
      Virial theorem: -V/T =      2.003454
@      MULPOP C       0.37; C      -0.39; C      -0.37; O      -0.64; H       0.23; H       0.31; H       0.24; H       0.25; 
 -----------------------------------------------------------------------------
@ 13  -189.714806175     -3.052077914065E-02    7.99516D-07   -2.25D-12

@ *** DIIS converged in  13 iterations !
@     Converged SCF energy, gradient:   -189.714806174551    8.00D-07
    - total time used in SIRFCK :              0.00 seconds

      Polarizable embedding energy contributions:
     ---------------------------------------------

       Electrostatic contributions:
         Monopoles                 -0.024393583355
         Dipoles                    0.006298358787
         Quadrupoles               -0.007169821483
         Octopoles                 -0.003175793481

       Polarization contributions:
         Electronic                -0.069810851119
         Nuclear                    0.067517268078
         Multipole                  0.000213643432

       Total PE energy:            -0.030520779141

 >>> Writing SIRIFC interface file <<<

 >>>> CPU and wall time for SCF :       0.859       0.863


 >>>>> Output from SIRIUS MP2 module <<<<<

 Reference: H.J.Aa.Jensen, P.Jorgensen, H.Agren, and J.Olsen,
            J. Chem. Phys. 88, 3834 (1988); 89, 5354 (1988)

 Checking that the closed shell orbitals are canonical Hartree-Fock orbitals

    Number of electrons  :   30
    Closed shell orbitals:   15

 MP2 for embedded QM system, reading Fock matrix from SIRIFC

@ NOTE: The present MP2 model is a PTE-like solvent MP2 model

@ Please see JCC, 2012-2022, 33, (2012) for reference.

 Hartree-Fock electronic energy:        -292.349132255925
 Hartree-Fock total      energy:        -189.684285395410

 Hartree-Fock orbital energies, symmetry 1, number of occupied SCF orbitals is   15

       -20.48273073   -11.30254755   -11.22357181   -11.20516927    -1.41895708
        -1.09452088    -0.89327315    -0.79432125    -0.68427625    -0.67819455
        -0.60659683    -0.56125933    -0.55656103    -0.44903390    -0.40197137
         0.07617813     0.23816884     0.27017829     0.28125836     0.32037452
         0.37412759     0.47956687     0.52183716     0.57943611     0.90775360
         0.92484757     0.95360440     1.00527962     1.02425915     1.06642152
         1.06814512     1.10709209     1.27313733     1.30977236     1.34890629
         1.45004498     1.52472403     1.65416748     1.77011256     1.86649593
         1.91255408     1.95893890     2.05930259     3.49732668

    E(LUMO) :     0.07617813   (in symmetry 1)
  - E(HOMO) :    -0.40197137   (in symmetry 1)
  --------------------------
    gap     :     0.47814950

 Integral transformation: Total CPU and WALL times (sec)       0.590       0.592

 MP2 move   0.289377 electrons to unoccupied HF orbitals


@   Hartree-Fock total energy   :          -189.6842853954
@   + MP2 contribution          :            -0.3913190258
@   = MP2 second order energy   :          -190.0756044212

 Natural orbital occupation numbers, symmetry 1
 Sum =    30.00000000; RHF =    30.00000000; Difference =     0.00000000

         1.99992703     1.99988230     1.99988120     1.99987610     1.99191885
         1.98814284     1.98370077     1.98354709     1.98053333     1.97844572
         1.97549981     1.97299112     1.96832560     1.95436767     1.94002625
         0.06137082     0.03725104     0.02672719     0.02374522     0.01855082
         0.01631546     0.01424046     0.01392075     0.01323059     0.00945250
         0.00791626     0.00574429     0.00508185     0.00478515     0.00372150
         0.00358789     0.00314139     0.00264038     0.00189990     0.00184055
         0.00164910     0.00131510     0.00130527     0.00110359     0.00079078
         0.00053390     0.00047229     0.00040198     0.00019829

 Time used for MP2 natural orbitals :       0.647 CPU seconds,       0.649 wall seconds.

 >>>> CPU and wall time for MP2 :       0.647       0.649


                       .-----------------------------------.
                       | >>> Final results from SIRIUS <<< |
                       `-----------------------------------'


@    Spin multiplicity:           1
@    Spatial symmetry:            1
@    Total charge of molecule:    0

@    Final HF energy:            -189.714806174551                 
@    Nuclear repulsion:           102.664846860515
@    Electronic energy:          -292.349132255925
@    Embedding energy:             -0.030520779141

@    Final gradient norm:           0.000000799516

 
     Date and time (Linux)  : Tue Sep 17 22:39:28 2013
     Host name              : TheSocialist                            

 (Only coefficients >0.0100 are printed.)

 Molecular orbitals for symmetry species  1
 ------------------------------------------

    Orbital        11       12       13       14       15       16       17
   1 C   :1s     0.0081   0.0286  -0.0000   0.0028  -0.0000   0.0000  -0.0000
   2 C   :1s     0.0103  -0.0310   0.0000  -0.0176   0.0000  -0.0000   0.0000
   3 C   :1s    -0.1354  -0.0931   0.0001   0.0844  -0.0000  -0.0000   0.0000
   4 C   :2px   -0.0534  -0.0987   0.0002  -0.2003  -0.0000  -0.0002  -0.0002
   5 C   :2py    0.2440   0.0385   0.0001  -0.0596   0.0000  -0.0001  -0.0001
   6 C   :2pz   -0.0000   0.0002   0.2783   0.0001  -0.0273  -0.2573  -0.3078
   7 C   :2px    0.0022  -0.0998   0.0002  -0.0001  -0.0000  -0.0002  -0.0004
   8 C   :2py    0.0893  -0.0065   0.0001  -0.0879  -0.0000  -0.0001  -0.0003
   9 C   :2pz   -0.0000   0.0002   0.2901   0.0000  -0.0617  -0.3851  -0.6857
  10 C   :1s    -0.0074  -0.0246   0.0000   0.0347  -0.0000  -0.0000   0.0000
  11 C   :1s     0.0137   0.0169  -0.0000  -0.0209   0.0000   0.0000  -0.0000
  12 C   :1s    -0.0044   0.1523  -0.0001  -0.3180   0.0000  -0.0000  -0.0001
  13 C   :2px    0.0280   0.1308  -0.0000   0.2163   0.0002  -0.0001   0.0002
  14 C   :2py   -0.2429   0.1936  -0.0001  -0.0444   0.0001  -0.0000   0.0000
  15 C   :2pz    0.0000  -0.0000   0.1302  -0.0001   0.3029  -0.1600   0.2960
  16 C   :2px    0.0070   0.1587  -0.0000   0.2679   0.0002  -0.0002   0.0005
  17 C   :2py   -0.1521   0.1892  -0.0001   0.0887   0.0001  -0.0001   0.0000
  18 C   :2pz    0.0000  -0.0001   0.1087  -0.0002   0.3673  -0.3504   0.7601
  19 C   :1s    -0.0138   0.0118  -0.0000  -0.0057   0.0000   0.0000   0.0000
  20 C   :1s     0.0246  -0.0184   0.0000   0.0007  -0.0000  -0.0000  -0.0000
  21 C   :1s     0.0088  -0.0112   0.0000   0.1146  -0.0000  -0.0000  -0.0001
  22 C   :2px   -0.2033  -0.2271   0.0002  -0.0556   0.0002   0.0002  -0.0001
  23 C   :2py    0.2045  -0.1747   0.0001   0.0446   0.0001   0.0001  -0.0000
  24 C   :2pz    0.0001   0.0002   0.0770   0.0000   0.2923   0.2789  -0.1602
  25 C   :2px   -0.1471  -0.2492   0.0002  -0.1304   0.0002   0.0003  -0.0004
  26 C   :2py    0.1164  -0.1272   0.0001   0.0860   0.0001   0.0001  -0.0001
  27 C   :2pz    0.0001   0.0002   0.0764   0.0001   0.3402   0.5608  -0.5293
  28 O   :1s     0.0383   0.0038  -0.0000   0.0004   0.0000  -0.0000  -0.0000
  29 O   :1s    -0.0337  -0.0029   0.0000  -0.0042  -0.0000   0.0000   0.0000
  30 O   :1s    -0.1595  -0.0141   0.0000   0.0222   0.0000  -0.0000   0.0001
  31 O   :2px    0.1033  -0.1511   0.0003   0.3890  -0.0001   0.0001   0.0001
  32 O   :2py   -0.2553  -0.0804   0.0002   0.1442  -0.0001   0.0001   0.0000
  33 O   :2pz    0.0000   0.0003   0.3554  -0.0003  -0.1971   0.2414   0.1987
  34 O   :2px    0.1091  -0.1652   0.0003   0.4852  -0.0002   0.0002   0.0002
  35 O   :2py   -0.2810  -0.0873   0.0002   0.1749  -0.0001   0.0001   0.0001
  36 O   :2pz    0.0000   0.0004   0.4005  -0.0003  -0.2496   0.3889   0.3801
  37 H   :1s    -0.1036  -0.0039  -0.0000   0.1794  -0.0000   0.0000  -0.0000
  38 H   :1s    -0.0939  -0.0063  -0.0000   0.2368  -0.0000   0.0000  -0.0001
  39 H   :1s    -0.0954   0.1869  -0.0001   0.0609  -0.0000  -0.0000   0.0000
  40 H   :1s    -0.0791   0.1124  -0.0001   0.0548  -0.0000   0.0000   0.0001
  41 H   :1s     0.0066   0.1997  -0.0001   0.0265  -0.0000  -0.0000  -0.0000
  42 H   :1s    -0.0121   0.1733  -0.0001   0.0292  -0.0000   0.0000  -0.0000
  43 H   :1s    -0.1555  -0.1412   0.0001  -0.0551   0.0000   0.0000   0.0000
  44 H   :1s    -0.1355  -0.0977   0.0001  -0.0369  -0.0000   0.0000   0.0001



 >>>> Total CPU  time used in SIRIUS :      1.53 seconds
 >>>> Total wall time used in SIRIUS :      1.54 seconds

 
     Date and time (Linux)  : Tue Sep 17 22:39:28 2013
     Host name              : TheSocialist                            


                     .---------------------------------------.
                     | End of Wave Function Section (SIRIUS) |
                     `---------------------------------------'



                 .------------------------------------------------.
                 | Starting in Dynamic Property Section (RESPONS) |
                 `------------------------------------------------'


 ------------------------------------------------------------------------------
  RESPONSE  -  an MCSCF, MC-srDFT, DFT, and SOPPA response property program
 ------------------------------------------------------------------------------


 <<<<<<<<<< OUTPUT FROM RESPONSE INPUT PROCESSING >>>>>>>>>>



@ **INFO** This is a solvent-SOPPA calculation w/ dynamic

@ **INFO** solvent response at RPA level only,

@ **INFO** cf. JCC, 2012-2022, 33, (2012) for reference.


 CHANGES OF DEFAULTS FOR RSPINP:
 -------------------------------


 Second Order Polarization Propagator Approximation -- SOPPA

 Default : Using Fock type decoupling of the two-electron density matrix :
    Add DV*(FC+FV) instead of DV*FC to E[2] approximate orbital diagonal



  Linear Response single residue calculation
 -------------------------------------------

 Environment is modeled using the polarizable embedding scheme (PE library)
 Print level                                    : IPRPP  =   2
 Maximum number of iterations for eigenval.eqs. : MAXITP =  60
 Threshold for convergence of eigenvalue eqs.   : THCPP  = 1.000D-03
 Maximum iterations in optimal orbital algorithm: MAXITO =   5

      2 Excitation energies are calculated for symmetry no.    1

      3 property residues are calculated with labels:

               XDIPLEN 
               YDIPLEN 
               ZDIPLEN 

 Old direct access AO file found, SORTA skipped.

 Integral transformation: Total CPU and WALL times (sec)       0.975       0.977


   SCF energy         :     -189.714806174550517
 -- inactive part     :     -292.349132255925042
 -- nuclear repulsion :      102.664846860515169


                     ***************************************
                     *** RHF response calculation (TDHF) ***
                     ***************************************



 >>>>>>>>>> Linear response calculation
 >>>>>>>>>> Symmetry of excitation/property operator(s)    1

 Number of excitations of this symmetry            2
 Number of response properties of this symmetry    0
 Number of C6/C8 properties of this symmetry       0


 Perturbation symmetry.     KSYMOP:       1
 p-h variables.             KZWOPT:     435
 2p-2h variables.           KZCONF:   94830
 Total number of variables. KZVAR :   95265



 <<< EXCITATION ENERGIES AND TRANSITION MOMENT CALCULATION (MCTDHF) >>>

 Operator symmetry =  1; triplet =   F


 *** THE REQUESTED    2 SOLUTION VECTORS CONVERGED

 Convergence of RSP solution vectors, threshold = 1.00D-03
 ---------------------------------------------------------------
 (dimension of paired reduced space:   60)
 RSP solution vector no.    1; norm of residual   7.97D-04
 RSP solution vector no.    2; norm of residual   9.03D-04

 *** RSPCTL MICROITERATIONS CONVERGED

@ Transition operator type:    XDIPLEN 
@ STATE NO:    1 *TRANSITION MOMENT:  2.41681262E-05 *ENERGY(eV):   3.7912911    
@ STATE NO:    2 *TRANSITION MOMENT: -0.95760109     *ENERGY(eV):   6.7804595    

@ Transition operator type:    YDIPLEN 
@ STATE NO:    1 *TRANSITION MOMENT: -8.69303224E-06 *ENERGY(eV):   3.7912911    
@ STATE NO:    2 *TRANSITION MOMENT:   1.3060774     *ENERGY(eV):   6.7804595    

@ Transition operator type:    ZDIPLEN 
@ STATE NO:    1 *TRANSITION MOMENT:  1.71224911E-02 *ENERGY(eV):   3.7912911    
@ STATE NO:    2 *TRANSITION MOMENT:  2.98674628E-04 *ENERGY(eV):   6.7804595    


  ******************************************************************************
  *** @ Excit. operator sym 1 & ref. state sym 1 => excited state symmetry 1 ***
  ******************************************************************************



 @ Excited state no:    1 in symmetry  1
 ---------------------------------------

@ Excitation energy :  0.13932739    au
@                      3.7912911     eV
@                      30578.827     cm-1
                       365.80401     kJ / mol

@ Total energy :      -189.57548     au

@ SOPPA  p-h  weight in excitation operator:   93.62 %
@ SOPPA 2p-2h weight in excitation operator:    6.38 %

@ Operator type:    XDIPLEN 
@ Oscillator strength (LENGTH)   :  5.42539301E-11  (Transition moment :  2.41681262E-05 )

@ Operator type:    YDIPLEN 
@ Oscillator strength (LENGTH)   :  7.01920333E-12  (Transition moment : -8.69303224E-06 )

@ Operator type:    ZDIPLEN 
@ Oscillator strength (LENGTH)   :  2.72319752E-05  (Transition moment :  1.71224911E-02 )


 @ Excited state no:    2 in symmetry  1
 ---------------------------------------

@ Excitation energy :  0.24917731    au
@                      6.7804595     eV
@                      54688.097     cm-1
                       654.21492     kJ / mol

@ Total energy :      -189.46563     au

@ SOPPA  p-h  weight in excitation operator:   93.81 %
@ SOPPA 2p-2h weight in excitation operator:    6.19 %

@ Operator type:    XDIPLEN 
@ Oscillator strength (LENGTH)   :  0.15233037      (Transition moment : -0.95760109     )

@ Operator type:    YDIPLEN 
@ Oscillator strength (LENGTH)   :  0.28337076      (Transition moment :   1.3060774     )

@ Operator type:    ZDIPLEN 
@ Oscillator strength (LENGTH)   :  1.48188292E-08  (Transition moment :  2.98674628E-04 )


 Time used in polarization propagator calculation is      3.77 CPU seconds for symmetry 1

 >>>> Total CPU  time used in RESPONSE:   4.79 seconds
 >>>> Total wall time used in RESPONSE:   4.82 seconds


                   .-------------------------------------------.
                   | End of Dynamic Property Section (RESPONS) |
                   `-------------------------------------------'

 >>>> Total CPU  time used in DALTON:   6.74 seconds
 >>>> Total wall time used in DALTON:   6.77 seconds

 
     Date and time (Linux)  : Tue Sep 17 22:39:33 2013
     Host name              : TheSocialist                            
