

     ************************************************************************
     *************** Dalton - An Electronic Structure Program ***************
     ************************************************************************

    This is output from DALTON release Dalton2017.alpha (2016)
         ( Web site: http://daltonprogram.org )

   ----------------------------------------------------------------------------

    NOTE:
     
    Dalton is an experimental code for the evaluation of molecular
    properties using (MC)SCF, DFT, CI, and CC wave functions.
    The authors accept no responsibility for the performance of
    the code or for the correctness of the results.
     
    The code (in whole or part) is provided under a licence and
    is not to be reproduced for further distribution without
    the written permission of the authors or their representatives.
     
    See the home page "http://daltonprogram.org" for further information.
     
    If results obtained with this code are published,
    the appropriate citations would be both of:
     
       K. Aidas, C. Angeli, K. L. Bak, V. Bakken, R. Bast,
       L. Boman, O. Christiansen, R. Cimiraglia, S. Coriani,
       P. Dahle, E. K. Dalskov, U. Ekstroem,
       T. Enevoldsen, J. J. Eriksen, P. Ettenhuber, B. Fernandez,
       L. Ferrighi, H. Fliegl, L. Frediani, K. Hald, A. Halkier,
       C. Haettig, H. Heiberg, T. Helgaker, A. C. Hennum,
       H. Hettema, E. Hjertenaes, S. Hoest, I.-M. Hoeyvik,
       M. F. Iozzi, B. Jansik, H. J. Aa. Jensen, D. Jonsson,
       P. Joergensen, J. Kauczor, S. Kirpekar,
       T. Kjaergaard, W. Klopper, S. Knecht, R. Kobayashi, H. Koch,
       J. Kongsted, A. Krapp, K. Kristensen, A. Ligabue,
       O. B. Lutnaes, J. I. Melo, K. V. Mikkelsen, R. H. Myhre,
       C. Neiss, C. B. Nielsen, P. Norman, J. Olsen,
       J. M. H. Olsen, A. Osted, M. J. Packer, F. Pawlowski,
       T. B. Pedersen, P. F. Provasi, S. Reine, Z. Rinkevicius,
       T. A. Ruden, K. Ruud, V. Rybkin, P. Salek, C. C. M. Samson,
       A. Sanchez de Meras, T. Saue, S. P. A. Sauer,
       B. Schimmelpfennig, K. Sneskov, A. H. Steindal,
       K. O. Sylvester-Hvid, P. R. Taylor, A. M. Teale,
       E. I. Tellgren, D. P. Tew, A. J. Thorvaldsen, L. Thoegersen,
       O. Vahtras, M. A. Watson, D. J. D. Wilson, M. Ziolkowski
       and H. Agren,
       "The Dalton quantum chemistry program system",
       WIREs Comput. Mol. Sci. 2014, 4:269–284 (doi: 10.1002/wcms.1172)
     
    and
     
       Dalton, a Molecular Electronic Structure Program,
       Release Dalton2017.alpha (2016), see http://daltonprogram.org
   ----------------------------------------------------------------------------

    Authors in alphabetical order (major contribution(s) in parenthesis):

  Kestutis Aidas,           Vilnius University,           Lithuania   (QM/MM)
  Celestino Angeli,         University of Ferrara,        Italy       (NEVPT2)
  Keld L. Bak,              UNI-C,                        Denmark     (AOSOPPA, non-adiabatic coupling, magnetic properties)
  Vebjoern Bakken,          University of Oslo,           Norway      (DALTON; geometry optimizer, symmetry detection)
  Radovan Bast,             UiT The Arctic U. of Norway,  Norway      (DALTON installation and execution frameworks)
  Pablo Baudin,             University of Valencia,       Spain       (Cholesky excitation energies)
  Linus Boman,              NTNU,                         Norway      (Cholesky decomposition and subsystems)
  Ove Christiansen,         Aarhus University,            Denmark     (CC module)
  Renzo Cimiraglia,         University of Ferrara,        Italy       (NEVPT2)
  Sonia Coriani,            University of Trieste,        Italy       (CC module, MCD in RESPONS)
  Janusz Cukras,            University of Trieste,        Italy       (MChD in RESPONS)
  Paal Dahle,               University of Oslo,           Norway      (Parallelization)
  Erik K. Dalskov,          UNI-C,                        Denmark     (SOPPA)
  Thomas Enevoldsen,        Univ. of Southern Denmark,    Denmark     (SOPPA)
  Janus J. Eriksen,         Aarhus University,            Denmark     (Polarizable embedding model, TDA)
  Rasmus Faber,             University of Copenhagen,     Denmark     (Vib.avg. NMR with SOPPA, parallel AO-SOPPA)
  Berta Fernandez,          U. of Santiago de Compostela, Spain       (doublet spin, ESR in RESPONS)
  Lara Ferrighi,            Aarhus University,            Denmark     (PCM Cubic response)
  Heike Fliegl,             University of Oslo,           Norway      (CCSD(R12))
  Luca Frediani,            UiT The Arctic U. of Norway,  Norway      (PCM)
  Bin Gao,                  UiT The Arctic U. of Norway,  Norway      (Gen1Int library)
  Christof Haettig,         Ruhr-University Bochum,       Germany     (CC module)
  Kasper Hald,              Aarhus University,            Denmark     (CC module)
  Asger Halkier,            Aarhus University,            Denmark     (CC module)
  Frederik Beyer Hansen,    University of Copenhagen,     Denmark     (Parallel AO-SOPPA)
  Erik D. Hedegaard,        Univ. of Southern Denmark,    Denmark     (Polarizable embedding model, QM/MM)
  Hanne Heiberg,            University of Oslo,           Norway      (geometry analysis, selected one-electron integrals)
  Trygve Helgaker,          University of Oslo,           Norway      (DALTON; ABACUS, ERI, DFT modules, London, and much more)
  Alf Christian Hennum,     University of Oslo,           Norway      (Parity violation)
  Hinne Hettema,            University of Auckland,       New Zealand (quadratic response in RESPONS; SIRIUS supersymmetry)
  Eirik Hjertenaes,         NTNU,                         Norway      (Cholesky decomposition)
  Pi A. B. Haase,           University of Copenhagen,     Denmark     (Triplet AO-SOPPA)
  Maria Francesca Iozzi,    University of Oslo,           Norway      (RPA)
  Brano Jansik              Technical Univ. of Ostrava    Czech Rep.  (DFT cubic response)
  Hans Joergen Aa. Jensen,  Univ. of Southern Denmark,    Denmark     (DALTON; SIRIUS, RESPONS, ABACUS modules, London, and much more)
  Dan Jonsson,              UiT The Arctic U. of Norway,  Norway      (cubic response in RESPONS module)
  Poul Joergensen,          Aarhus University,            Denmark     (RESPONS, ABACUS, and CC modules)
  Maciej Kaminski,          University of Warsaw,         Poland      (CPPh in RESPONS)
  Joanna Kauczor,           Linkoeping University,        Sweden      (Complex polarization propagator (CPP) module)
  Sheela Kirpekar,          Univ. of Southern Denmark,    Denmark     (Mass-velocity & Darwin integrals)
  Wim Klopper,              KIT Karlsruhe,                Germany     (R12 code in CC, SIRIUS, and ABACUS modules)
  Stefan Knecht,            ETH Zurich,                   Switzerland (Parallel CI and MCSCF)
  Rika Kobayashi,           Australian National Univ.,    Australia   (DIIS in CC, London in MCSCF)
  Henrik Koch,              NTNU,                         Norway      (CC module, Cholesky decomposition)
  Jacob Kongsted,           Univ. of Southern Denmark,    Denmark     (Polarizable embedding model, QM/MM)
  Andrea Ligabue,           University of Modena,         Italy       (CTOCD, AOSOPPA)
  Nanna H. List             Univ. of Southern Denmark,    Denmark     (Polarizable embedding model)
  Ola B. Lutnaes,           University of Oslo,           Norway      (DFT Hessian)
  Juan I. Melo,             University of Buenos Aires,   Argentina   (LRESC, Relativistic Effects on NMR Shieldings)
  Kurt V. Mikkelsen,        University of Copenhagen,     Denmark     (MC-SCRF and QM/MM)
  Rolf H. Myhre,            NTNU,                         Norway      (Cholesky, subsystems and ECC2)
  Christian Neiss,          Univ. Erlangen-Nuernberg,     Germany     (CCSD(R12))
  Christian B. Nielsen,     University of Copenhagen,     Denmark     (QM/MM)
  Patrick Norman,           Linkoeping University,        Sweden      (Cubic response and complex frequency response in RESPONS)
  Jeppe Olsen,              Aarhus University,            Denmark     (SIRIUS CI/density modules)
  Jogvan Magnus H. Olsen,   Univ. of Southern Denmark,    Denmark     (Polarizable embedding model, QM/MM)
  Anders Osted,             Copenhagen University,        Denmark     (QM/MM)
  Martin J. Packer,         University of Sheffield,      UK          (SOPPA)
  Filip Pawlowski,          Kazimierz Wielki University,  Poland      (CC3)
  Morten N. Pedersen,       Univ. of Southern Denmark,    Denmark     (Polarizable embedding model)
  Thomas B. Pedersen,       University of Oslo,           Norway      (Cholesky decomposition)
  Patricio F. Provasi,      University of Northeastern,   Argentina   (Analysis of coupling constants in localized orbitals)
  Zilvinas Rinkevicius,     KTH Stockholm,                Sweden      (open-shell DFT, ESR)
  Elias Rudberg,            KTH Stockholm,                Sweden      (DFT grid and basis info)
  Torgeir A. Ruden,         University of Oslo,           Norway      (Numerical derivatives in ABACUS)
  Kenneth Ruud,             UiT The Arctic U. of Norway,  Norway      (DALTON; ABACUS magnetic properties and much more)
  Pawel Salek,              KTH Stockholm,                Sweden      (DALTON; DFT code)
  Claire C. M. Samson       University of Karlsruhe       Germany     (Boys localization, r12 integrals in ERI)
  Alfredo Sanchez de Meras, University of Valencia,       Spain       (CC module, Cholesky decomposition)
  Trond Saue,               Paul Sabatier University,     France      (direct Fock matrix construction)
  Stephan P. A. Sauer,      University of Copenhagen,     Denmark     (SOPPA(CCSD), SOPPA prop., AOSOPPA, vibrational g-factors)
  Bernd Schimmelpfennig,    Forschungszentrum Karlsruhe,  Germany     (AMFI module)
  Kristian Sneskov,         Aarhus University,            Denmark     (Polarizable embedding model, QM/MM)
  Arnfinn H. Steindal,      UiT The Arctic U. of Norway,  Norway      (parallel QM/MM, Polarizable embedding model)
  Casper Steinmann,         Univ. of Southern Denmark,    Denmark     (QFIT, Polarizable embedding model)
  K. O. Sylvester-Hvid,     University of Copenhagen,     Denmark     (MC-SCRF)
  Peter R. Taylor,          VLSCI/Univ. of Melbourne,     Australia   (Symmetry handling ABACUS, integral transformation)
  Andrew M. Teale,          University of Nottingham,     England     (DFT-AC, DFT-D)
  David P. Tew,             University of Bristol,        England     (CCSD(R12))
  Olav Vahtras,             KTH Stockholm,                Sweden      (triplet response, spin-orbit, ESR, TDDFT, open-shell DFT)
  David J. Wilson,          La Trobe University,          Australia   (DFT Hessian and DFT magnetizabilities)
  Hans Agren,               KTH Stockholm,                Sweden      (SIRIUS module, RESPONS, MC-SCRF solvation model)
 --------------------------------------------------------------------------------

     Date and time (Linux)  : Thu Nov 30 15:31:28 2017
     Host name              : kemi-czc7084xz.win.dtu.dk               

 * Work memory size             :    64000000 =  488.28 megabytes.

 * Directories for basis set searches:
   1) /home/WIN/rfaber/source/dalton/DALTON/test/cc_eomxopa_triplet
   2) /home/WIN/rfaber/source/dalton/build-eom/basis


Compilation information
-----------------------

 Who compiled             | rfaber
 Host                     | kemi-czc7084xz.win.dtu.dk
 System                   | Linux-3.10.0-693.2.2.el7.x86_64
 CMake generator          | Unix Makefiles
 Processor                | x86_64
 64-bit integers          | OFF
 MPI                      | OFF
 Fortran compiler         | /usr/bin/gfortran
 Fortran compiler version | GNU Fortran (GCC) 4.8.5 20150623 (Red Hat 4.8.5-16
                          | )
 C compiler               | /usr/bin/gcc
 C compiler version       | gcc (GCC) 4.8.5 20150623 (Red Hat 4.8.5-16)
 C++ compiler             | /usr/bin/g++
 C++ compiler version     | g++ (GCC) 4.8.5 20150623 (Red Hat 4.8.5-16)
 BLAS                     | /lib64/libopenblas.so
 Static linking           | OFF
 Last Git revision        | 1d668e7c058280ed836bac19e2ce170c8063901f
 Git branch               | eom_triplet
 Configuration time       | 2017-11-30 15:29:59.363503


   Content of the .dal input file
 ----------------------------------

**DALTON INPUT
.RUN WAVE FUNCTIONS
**WAVE FUNCTIONS
.CC
*SCF INPUT
.THRESH
 1.0D-10
*CC INPUT
.CCSD
.THRENR
 1.0d-10
.MAXRED
 300
.MAX ITE
 200
*CCEXCI
.NCCEXCI
 0 0 0 0
 3 2 3 2
.THREXC
 1.0D-10
*CCXOPA
.DIPLEN
.EOMXTMO
**END OF DALTON INPUT


   Content of the .mol file
 ----------------------------

BASIS
cc-pVDZ
Water
Empty line
Atomtypes=2
        8.    1
O    0.0000000000  0.0000000000 -0.1239093563
      1.00    2
H    0.0000000000  1.4299372840 0.9832657567
H    0.0000000000 -1.4299372840 0.9832657567


       *******************************************************************
       *********** Output from DALTON general input processing ***********
       *******************************************************************

 --------------------------------------------------------------------------------
   Overall default print level:    0
   Print level for DALTON.STAT:    1

    HERMIT 1- and 2-electron integral sections will be executed
    "Old" integral transformation used (limited to max 255 basis functions)
    Wave function sections will be executed (SIRIUS module)
 --------------------------------------------------------------------------------


   ****************************************************************************
   *************** Output of molecule and basis set information ***************
   ****************************************************************************


    The two title cards from your ".mol" input:
    ------------------------------------------------------------------------
 1: Water                                                                   
 2: Empty line                                                              
    ------------------------------------------------------------------------

  Atomic type no.    1
  --------------------
  Nuclear charge:   8.00000
  Number of symmetry independent centers:    1
  Number of basis sets to read;    2
  Basis set file used for this atomic type with Z =   8 :
     "/home/WIN/rfaber/source/dalton/build-eom/basis/cc-pVDZ"

  Atomic type no.    2
  --------------------
  Nuclear charge:   1.00000
  Number of symmetry independent centers:    2
  Number of basis sets to read;    2
  Basis set file used for this atomic type with Z =   1 :
     "/home/WIN/rfaber/source/dalton/build-eom/basis/cc-pVDZ"


                      SYMADD: Requested addition of symmetry
                      --------------------------------------

 Symmetry test threshold:  5.00E-06

@   The molecule is centered at center of mass and rotated
@   so principal axes of inertia are along coordinate axes.

 Symmetry class found: C(2v)          

 Symmetry Independent Centres             
 ----------------------------
       8 :      0.00000000     0.00000000    -0.12390936  Isotope  1
       1 :      0.00000000     1.42993728     0.98326576  Isotope  1

 The following elements were found:   X  Y     


                         SYMGRP: Point group information
                         -------------------------------

@    Full point group is: C(2v)          
@    Represented as:      C2v

@  * The irrep name for each symmetry:    1: A1     2: B1     3: B2     4: A2 

   * The point group was generated by:

      Reflection in the yz-plane
      Reflection in the xz-plane

   * Group multiplication table

        |  E   C2z  Oxz  Oyz
   -----+--------------------
     E  |  E   C2z  Oxz  Oyz
    C2z | C2z   E   Oyz  Oxz
    Oxz | Oxz  Oyz   E   C2z
    Oyz | Oyz  Oxz  C2z   E 

   * Character table

        |  E   C2z  Oxz  Oyz
   -----+--------------------
    A1  |   1    1    1    1
    B1  |   1   -1    1   -1
    B2  |   1   -1   -1    1
    A2  |   1    1   -1   -1

   * Direct product table

        | A1   B1   B2   A2 
   -----+--------------------
    A1  | A1   B1   B2   A2 
    B1  | B1   A1   A2   B2 
    B2  | B2   A2   A1   B1 
    A2  | A2   B2   B1   A1 


                                 Isotopic Masses
                                 ---------------

                           O          15.994915
                           H   _1      1.007825
                           H   _2      1.007825

                       Total mass:    18.010565 amu
                       Natural abundance:  99.730 %

 Center-of-mass coordinates (a.u.):    0.000000    0.000000    0.000000


  Atoms and basis sets
  --------------------

  Number of atom types :    2
  Total number of atoms:    3

  Basis set used is "cc-pVDZ" from the basis set library.

  label    atoms   charge   prim   cont     basis
  ----------------------------------------------------------------------
  O           1    8.0000    26    14      [9s4p1d|3s2p1d]                                    
  H           2    1.0000     7     5      [4s1p|2s1p]                                        
  ----------------------------------------------------------------------
  total:      3   10.0000    40    24
  ----------------------------------------------------------------------
  Spherical harmonic basis used.

  Threshold for neglecting AO integrals:  1.00D-12


  Cartesian Coordinates (a.u.)
  ----------------------------

  Total number of coordinates:    9
  O       :     1  x   0.0000000000    2  y   0.0000000000    3  z  -0.1239093563
  H   / 1 :     4  x   0.0000000000    5  y   1.4299372840    6  z   0.9832657567
  H   / 2 :     7  x   0.0000000000    8  y  -1.4299372840    9  z   0.9832657567


  Symmetry Coordinates
  --------------------

  Number of coordinates in each symmetry:     3    2    3    1

  Symmetry  A1  ( 1)

    1   O     z    3
    2   H     y    [  5  -    8 ]/2
    3   H     z    [  6  +    9 ]/2

  Symmetry  B1  ( 2)

    4   O     x    1
    5   H     x    [  4  +    7 ]/2

  Symmetry  B2  ( 3)

    6   O     y    2
    7   H     y    [  5  +    8 ]/2
    8   H     z    [  6  -    9 ]/2

  Symmetry  A2  ( 4)

    9   H     x    [  4  -    7 ]/2


   Interatomic separations (in Angstrom):
   --------------------------------------

            O           H   _1      H   _2
            ------      ------      ------
 O     :    0.000000
 H   _1:    0.957000    0.000000
 H   _2:    0.957000    1.513380    0.000000


  Max    interatomic separation is    1.5134 Angstrom (    2.8599 Bohr)
  between atoms    3 and    2, "H   _2" and "H   _1".

  Min HX interatomic separation is    0.9570 Angstrom (    1.8085 Bohr)


  Bond distances (Angstrom):
  --------------------------

                  atom 1     atom 2       distance
                  ------     ------       --------
  bond distance:  H   _1     O            0.957000
  bond distance:  H   _2     O            0.957000


  Bond angles (degrees):
  ----------------------

                  atom 1     atom 2     atom 3         angle
                  ------     ------     ------         -----
  bond angle:     H   _1     O          H   _2       104.500




 Principal moments of inertia (u*A**2) and principal axes
 --------------------------------------------------------

   IA       0.614476          0.000000    1.000000    0.000000
   IB       1.154121          0.000000    0.000000    1.000000
   IC       1.768597          1.000000    0.000000    0.000000


 Rotational constants
 --------------------

@    The molecule is planar.

               A                   B                   C

         822455.8206         437890.8074         285751.4237 MHz
           27.434173           14.606465            9.531642 cm-1


@  Nuclear repulsion energy :    9.196931932729 Hartree


  Symmetry Orbitals
  -----------------

  Number of orbitals in each symmetry:          11    4    7    2


  Symmetry  A1 ( 1)

    1     O        1s         1
    2     O        1s         2
    3     O        1s         3
    4     O        2pz        6
    5     O        2pz        9
    6     O        3d0       12
    7     O        3d2+      14
    8     H        1s        15 +   16
    9     H        1s        17 +   18
   10     H        2py       21 -   22
   11     H        2pz       23 +   24


  Symmetry  B1 ( 2)

   12     O        2px        4
   13     O        2px        7
   14     O        3d1+      13
   15     H        2px       19 +   20


  Symmetry  B2 ( 3)

   16     O        2py        5
   17     O        2py        8
   18     O        3d1-      11
   19     H        1s        15 -   16
   20     H        1s        17 -   18
   21     H        2py       21 +   22
   22     H        2pz       23 -   24


  Symmetry  A2 ( 4)

   23     O        3d2-      10
   24     H        2px       19 -   20

  Symmetries of electric field:  B1 (2)  B2 (3)  A1 (1)

  Symmetries of magnetic field:  B2 (3)  B1 (2)  A2 (4)


                     .---------------------------------------.
                     | Starting in Integral Section (HERMIT) |
                     `---------------------------------------'



 ***************************************************************************************
 ****************** Output from **INTEGRALS input processing (HERMIT) ******************
 ***************************************************************************************


 - Using defaults, no **INTEGRALS input found

 Default print level:        1

 * Nuclear model: Point charge

 Calculation of one- and two-electron Hamiltonian integrals.

 Center of mass  (bohr):      0.000000000000      0.000000000000      0.000000000000
 Operator center (bohr):      0.000000000000      0.000000000000      0.000000000000
 Gauge origin    (bohr):      0.000000000000      0.000000000000      0.000000000000
 Dipole origin   (bohr):      0.000000000000      0.000000000000      0.000000000000


     ************************************************************************
     ************************** Output from HERINT **************************
     ************************************************************************



                      Nuclear contribution to dipole moments
                      --------------------------------------

                 au               Debye          C m (/(10**-30)

      z      0.97525666         2.47885502         8.26857032



 Threshold for neglecting two-electron integrals:  1.00D-12
 HERMIT - Number of two-electron integrals written:       11412 ( 25.3% )
 HERMIT - Megabytes written:                              0.137

  Total CPU  time used in HERMIT:   0.04 seconds
  Total wall time used in HERMIT:   0.04 seconds


                        .----------------------------------.
                        | End of Integral Section (HERMIT) |
                        `----------------------------------'



                   .--------------------------------------------.
                   | Starting in Wave Function Section (SIRIUS) |
                   `--------------------------------------------'

NCCEXCI for singlet:    0    0    0    0
NCCEXCI for triplet:    3    2    3    2
 CCSD_INPUT: skip Nij*xksi or TX*B
 CCSD_INPUT: Add EOM extra term   

 *** Output from Huckel module :

     Using EWMO model:          F
     Using EHT  model:          T
     Number of Huckel orbitals each symmetry:    4    1    2    0

 Huckel EHT eigenvalues for symmetry :  1
          -20.705656      -1.506643      -0.670531      -0.292100

 Huckel EHT eigenvalues for symmetry :  2
           -0.616200

 Huckel EHT eigenvalues for symmetry :  3
           -0.731300      -0.257471

 **********************************************************************
 *SIRIUS* a direct, restricted step, second order MCSCF program       *
 **********************************************************************

 
     Date and time (Linux)  : Thu Nov 30 15:31:28 2017
     Host name              : kemi-czc7084xz.win.dtu.dk               

 Title lines from ".mol" input file:
     Water                                                                   
     Empty line                                                              

 Print level on unit LUPRI =   2 is   0
 Print level on unit LUW4  =   2 is   5

@    (Integral direct) CC calculation.

@    This is a combination run starting with
@              a restricted, closed shell Hartree-Fock calculation


 Initial molecular orbitals are obtained according to
 ".MOSTART EHT   " input option

     Wave function specification
     ============================

     For the specification of the Coupled Cluster: see later.

@    Wave function type        --- CC ---
@    Number of closed shell electrons          10
@    Number of electrons in active shells       0
@    Total charge of the molecule               0

@    Spin multiplicity and 2 M_S                1         0
@    Total number of symmetries                 4 (point group: C2v)
@    Reference state symmetry                   1 (irrep name : A1 )

     Orbital specifications
     ======================
@    Abelian symmetry species          All |    1    2    3    4
@                                          |  A1   B1   B2   A2 
                                       --- |  ---  ---  ---  ---
@    Total number of orbitals           24 |   11    4    7    2
@    Number of basis functions          24 |   11    4    7    2

      ** Automatic occupation of RHF orbitals **

      -- Initial occupation of symmetries is determined from extended Huckel guess.           
      -- Initial occupation of symmetries is :
@    Occupied SCF orbitals               5 |    3    1    1    0

     Maximum number of Fock   iterations      0
     Maximum number of DIIS   iterations     60
     Maximum number of QC-SCF iterations     60
     Threshold for SCF convergence     1.00D-10


 Changes of defaults for CC:
 ---------------------------

 -Excitation energies calculated
 -Transition strengths between two excited states calculated.
  


 ***********************************************
 ***** DIIS acceleration of SCF iterations *****
 ***********************************************

 C1-DIIS algorithm; max error vectors =    8

 Automatic occupation of symmetries with  10 electrons.

 Iter     Total energy    Error norm  Delta(E)    SCF occupation
 -----------------------------------------------------------------------------

Calculating AOSUPINT
     (Precalculated AO two-electron integrals are transformed to P-supermatrix elements.
      Threshold for discarding integrals :  1.00D-12 )
@  1  -75.8009975347       2.30D+00  -7.58D+01     3   1   1   0
      Virial theorem: -V/T =      1.999427
@    MULPOP   O      -0.43; H   _1  0.22; H   _2  0.22; 
   1  Level shift: doubly occupied orbital energies shifted by -2.00D-01
 -----------------------------------------------------------------------------
@  2  -76.0137712189       3.95D-01  -2.13D-01     3   1   1   0
      Virial theorem: -V/T =      2.000385
@    MULPOP   O      -0.27; H   _1  0.13; H   _2  0.13; 
   2  Level shift: doubly occupied orbital energies shifted by -5.00D-02
 -----------------------------------------------------------------------------
@  3  -76.0258203332       1.04D-01  -1.20D-02     3   1   1   0
      Virial theorem: -V/T =      2.001509
@    MULPOP   O      -0.27; H   _1  0.14; H   _2  0.14; 
   3  Level shift: doubly occupied orbital energies shifted by -2.50D-02
 -----------------------------------------------------------------------------
@  4  -76.0267446743       3.33D-02  -9.24D-04     3   1   1   0
      Virial theorem: -V/T =      1.999932
@    MULPOP   O      -0.30; H   _1  0.15; H   _2  0.15; 
   4  Level shift: doubly occupied orbital energies shifted by -1.25D-02
 -----------------------------------------------------------------------------
@  5  -76.0268052958       6.60D-03  -6.06D-05     3   1   1   0
      Virial theorem: -V/T =      2.000574
@    MULPOP   O      -0.30; H   _1  0.15; H   _2  0.15; 
 -----------------------------------------------------------------------------
@  6  -76.0268080675       9.22D-04  -2.77D-06     3   1   1   0
      Virial theorem: -V/T =      2.000476
@    MULPOP   O      -0.30; H   _1  0.15; H   _2  0.15; 
 -----------------------------------------------------------------------------
@  7  -76.0268081615       1.64D-04  -9.40D-08     3   1   1   0
      Virial theorem: -V/T =      2.000487
@    MULPOP   O      -0.31; H   _1  0.15; H   _2  0.15; 
 -----------------------------------------------------------------------------
@  8  -76.0268081652       1.96D-05  -3.67D-09     3   1   1   0
      Virial theorem: -V/T =      2.000488
@    MULPOP   O      -0.31; H   _1  0.15; H   _2  0.15; 
 -----------------------------------------------------------------------------
@  9  -76.0268081652       3.89D-06  -5.31D-11     3   1   1   0
      Virial theorem: -V/T =      2.000488
@    MULPOP   O      -0.31; H   _1  0.15; H   _2  0.15; 
 -----------------------------------------------------------------------------
@ 10  -76.0268081652       8.93D-07  -2.70D-12     3   1   1   0
      Virial theorem: -V/T =      2.000488
@    MULPOP   O      -0.31; H   _1  0.15; H   _2  0.15; 
 -----------------------------------------------------------------------------
@ 11  -76.0268081652       8.65D-08  -1.42D-13     3   1   1   0
      Virial theorem: -V/T =      2.000488
@    MULPOP   O      -0.31; H   _1  0.15; H   _2  0.15; 
 -----------------------------------------------------------------------------
@ 12  -76.0268081652       7.31D-09   0.00D+00     3   1   1   0
      Virial theorem: -V/T =      2.000488
@    MULPOP   O      -0.31; H   _1  0.15; H   _2  0.15; 
 -----------------------------------------------------------------------------
@ 13  -76.0268081652       1.46D-09   0.00D+00     3   1   1   0
      Virial theorem: -V/T =      2.000488
@    MULPOP   O      -0.31; H   _1  0.15; H   _2  0.15; 
 -----------------------------------------------------------------------------
@ 14  -76.0268081652       2.11D-10   0.00D+00     3   1   1   0
      Virial theorem: -V/T =      2.000488
@    MULPOP   O      -0.31; H   _1  0.15; H   _2  0.15; 
 -----------------------------------------------------------------------------
@ 15  -76.0268081652       6.70D-11  -2.84D-14     3   1   1   0

@ *** DIIS converged in  15 iterations !
@     Converged SCF energy, gradient:    -76.026808165250    6.70D-11
    - total time used in SIRFCK :              0.00 seconds


 *** SCF orbital energy analysis ***

 Number of electrons :   10
 Orbital occupations :    3    1    1    0

 Sym       Hartree-Fock orbital energies

1 A1    -20.55039011    -1.33682614    -0.56664574     0.18560873     0.85462704
          1.16350007     1.44443875     1.86721905     2.49106020     3.51094882
          3.86608421

2 B1     -0.49316918     1.20038401     1.67465608     3.28596075

3 B2     -0.69940558     0.25629059     0.78945155     1.25330055     1.93526815
          2.45346939     4.14787768

4 A2      1.47636958     3.33912410

    E(LUMO) :     0.18560873 au (symmetry 1)
  - E(HOMO) :    -0.49316918 au (symmetry 2)
  ------------------------------------------
    gap     :     0.67877792 au

 --- Writing SIRIFC interface file

 CPU and wall time for SCF :       0.007       0.007


                       .-----------------------------------.
                       | --- Final results from SIRIUS --- |
                       `-----------------------------------'


@    Spin multiplicity:           1
@    Spatial symmetry:            1 ( irrep  A1  in C2v )
@    Total charge of molecule:    0

@    Final HF energy:             -76.026808165250                 
@    Nuclear repulsion:             9.196931932729
@    Electronic energy:           -85.223740097979

@    Final gradient norm:           0.000000000067

 
     Date and time (Linux)  : Thu Nov 30 15:31:28 2017
     Host name              : kemi-czc7084xz.win.dtu.dk               

File label for MO orbitals:  30Nov17   FOCKDIIS

 (Only coefficients > 0.0100 are printed.)

 Molecular orbitals for symmetry species 1  (A1 )
 ------------------------------------------------

    Orbital         1        2        3        4        5        6        7
   1 O   :1s     1.0004  -0.0082   0.0022   0.0520   0.0650   0.0032   0.2017
   2 O   :1s     0.0023   0.8703  -0.2956  -0.1427   0.5027   0.2257   1.0396
   3 O   :1s    -0.0014  -0.1230  -0.1806  -0.9212  -0.6077   0.6208  -1.1018
   4 O   :2pz    0.0026   0.1150   0.7948  -0.2774   0.4799  -1.0990  -0.1920
   5 O   :2pz   -0.0017  -0.0661  -0.0008  -0.2091  -0.2312   1.7859   0.8279
   6 O   :3d0    0.0000   0.0012   0.0179  -0.0075  -0.0010   0.0127  -0.1171
   7 O   :3d2+  -0.0001  -0.0030  -0.0046   0.0100   0.1071   0.0067  -0.0046
   8 H   :1s    -0.0004   0.3297   0.3512   0.1002  -1.3394  -0.9320  -0.5671
   9 H   :1s     0.0006  -0.1552  -0.1358   0.7792   1.2189   0.3541   0.4939
  10 H   :2py    0.0006  -0.0373  -0.0318  -0.0176  -0.2964   0.0845   0.3291
  11 H   :2pz    0.0005  -0.0205   0.0076  -0.0163  -0.0593   0.2505  -0.5458

    Orbital         8        9       10       11
   1 O   :1s    -0.7238   0.2791  -0.0842   0.1419
   2 O   :1s    -3.1299   1.4361  -0.3031   0.3424
   3 O   :1s     4.8267  -0.0299   0.7343  -2.4658
   4 O   :2pz    0.1613   0.9759   0.0289  -0.5912
   5 O   :2pz    0.8936  -0.2700   0.5259  -0.6496
   6 O   :3d0   -0.1141  -0.0532   1.0849  -0.1341
   7 O   :3d2+   0.1081   0.2178   0.1750   1.1600
   8 H   :1s    -1.4112  -0.8152  -0.5238   2.1098
   9 H   :1s     0.3192   0.2500   0.2245  -0.8658
  10 H   :2py    0.3731   0.7445   0.3532  -0.6207
  11 H   :2pz   -0.0232   0.5370  -0.3151  -0.4939

 Molecular orbitals for symmetry species 2  (B1 )
 ------------------------------------------------

    Orbital         1        2        3        4
   1 O   :2px    0.9196  -1.4102   0.0304  -0.0165
   2 O   :2px    0.0721   1.6749   0.6194   0.3195
   3 O   :3d1+   0.0182  -0.0035  -0.1607   1.0429
   4 H   :2px    0.0311   0.0078  -0.7672  -0.3987

 Molecular orbitals for symmetry species 3  (B2 )
 ------------------------------------------------

    Orbital         1        2        3        4        5        6        7
   1 O   :2py    0.7140  -0.4125  -0.3902  -1.0694   0.0144   1.2235   0.6847
   2 O   :2py   -0.1070  -0.4810  -0.2822   2.2571  -0.9082  -0.4109   0.8298
   3 O   :3d1-   0.0268  -0.0213   0.1118   0.0447   0.0294  -0.1388   1.3257
   4 H   :1s     0.5582   0.0440   1.6071  -0.6460   0.6598  -0.5038  -1.8516
   5 H   :1s    -0.1901   1.4230  -1.4912  -0.5022  -0.2392  -0.0774   0.6394
   6 H   :2py   -0.0233  -0.0209   0.0741   0.3026   0.4723   0.7246   0.6064
   7 H   :2pz   -0.0327  -0.0172   0.1530   0.1869  -0.6932   0.5553   0.4939

 Molecular orbitals for symmetry species 4  (A2 )
 ------------------------------------------------

    Orbital         1        2
   1 O   :3d2-  -0.1312   1.0664
   2 H   :2px   -0.6856  -0.3717

  Total CPU  time used in SIRIUS :   0.01 seconds
  Total wall time used in SIRIUS :   0.01 seconds

 
     Date and time (Linux)  : Thu Nov 30 15:31:28 2017
     Host name              : kemi-czc7084xz.win.dtu.dk               


                     .---------------------------------------.
                     | End of Wave Function Section (SIRIUS) |
                     `---------------------------------------'



                    .------------------------------------------.
                    | Starting in Coupled Cluster Section (CC) |
                    `------------------------------------------'

  

 *******************************************************************************
 *******************************************************************************
 *                                                                             *
 *                                                                             *
 *                    START OF COUPLED CLUSTER CALCULATION                     *
 *                                                                             *
 *                                                                             *
 *******************************************************************************
 *******************************************************************************



 CCR12 ANSATZ =   0

 CCR12 APPROX =   0

   

 *******************************************************************
 *                                                                 *
 *----------                                             >---------*
 *---------- OUTPUT FROM COUPLED CLUSTER ENERGY PROGRAM  >---------*
 *----------                                             >---------*
 *                                                                 *
 *******************************************************************


             The Direct Coupled Cluster Energy Program
             -----------------------------------------


          Number of t1 amplitudes                 :        33
          Number of t2 amplitudes                 :      1277
          Total number of amplitudes in ccsd      :      1310

 Iter.  1: Coupled cluster MP2   energy :     -76.2307563423383385
 Iter.  1: Coupled cluster CCSD  energy :     -76.2357152945661909
 Iter.  2: Coupled cluster CCSD  energy :     -76.2396064923116228
 Iter.  3: Coupled cluster CCSD  energy :     -76.2400655731057952
 Iter.  4: Coupled cluster CCSD  energy :     -76.2400720696138308
 Iter.  5: Coupled cluster CCSD  energy :     -76.2400823589365473
 Iter.  6: Coupled cluster CCSD  energy :     -76.2400806785932588
 Iter.  7: Coupled cluster CCSD  energy :     -76.2400800477193030
 Iter.  8: Coupled cluster CCSD  energy :     -76.2400799235875581
 Iter.  9: Coupled cluster CCSD  energy :     -76.2400798955824541
 Iter. 10: Coupled cluster CCSD  energy :     -76.2400798838105089
 Iter. 11: Coupled cluster CCSD  energy :     -76.2400798807123294
 Iter. 12: Coupled cluster CCSD  energy :     -76.2400798814804261
 Iter. 13: Coupled cluster CCSD  energy :     -76.2400798817278229
 Iter. 14: Coupled cluster CCSD  energy :     -76.2400798816715479

 CCSD  energy converged to within   0.10D-09 is          -76.240079881672
 Final 2-norm of the CC vector function:  2.12413794D-09





             +-------------------------------------------------------+
             ! Final results from the Coupled Cluster energy program !
             +-------------------------------------------------------+



            Total SCF   energy:                   -76.0268081652

            Total MP2   energy:                   -76.2307563423

            Total CCSD  energy:                   -76.2400798817




                   +--------------------------------------------+
                   ! Calculating singlet intermediates for CCLR !
                   +--------------------------------------------+



            E-intermediates calculated 
            Fock-intermediate calculated 
            Gamma-intermediate calculated 
            BF-intermediate calculated 
            C-intermediate calculated 
            D-intermediate calculated 






                   +--------------------------------------------+
                   ! Calculating triplet intermediates for CCLR !
                   +--------------------------------------------+



            Triplet D and CD intermediate calculated 
   

 *******************************************************************
 *                                                                 *
 *---- OUTPUT FROM COUPLED CLUSTER RESPONSE  -------------*
 *                                                                 *
 *******************************************************************



                         +--------------------------------+
                         ! Coupled Cluster model is: CCSD !
                         +--------------------------------+

 RPA: call cceq_str
 RPA: exit cceq_str
  
   

 *******************************************************************
 *                                                                 *
 *---------- OUTPUT FROM COUPLED CLUSTER LINEAR RESPONSE >---------*
 *                                                                 *
 *----------     CALCULATION OF EXCITATION ENERGIES      >---------*
 *                                                                 *
 *******************************************************************



                           +---------------------------+
                           !  CCSD Excitation Energies !
                           +---------------------------+


 --------------------------
 Symmetry class Nr.:     1
 Multiplicity      :     1
 --------------------------

 Length of Excitation vectors in this class is:      1310
 No Excitation Energies calculated in this symmetry class

 --------------------------
 Symmetry class Nr.:     1
 Multiplicity      :     3
 --------------------------

 Length of Excitation vectors in this class is:      2587
 Converging for  3 roots.
 Start vector guessed from diagonal
 ... selected element no. 17
 Start vector guessed from diagonal
 ... selected element no. 28
 Start vector guessed from diagonal
 ... selected element no. 18


 SYMMETRY CLASS NR.    1
 MULTIPLICITY          3


 CCSD       right excitation energies:
 ====================================
 (conversion factor used: 1 au = 27.2113957 eV)

 Excitation no.       Hartree               eV 
 --------------       -------               --
         1            0.3652639767        9.9393384094
         2            0.5705027656       15.5241699470
         3            0.8940962098       24.3295954861


 Total excited state energies for states of symmetry/spin    1    3
 Excitation no.       Energy (Hartree) 
 ------------------------------------- 
@@    1    1           -75.874815904923068
@@    1    2           -75.669577116094260
@@    1    3           -75.345983671851968


 Analysis of the Coupled Cluster Excitation Vector Number :  1
 -------------------------------------------------------------

          Excitation Energy :                             9.9393 eV


     CC_PRAM:Overall Contribution of the Different Components
     --------------------------------------------------------



     Single Excitation Contribution      :         96.2600 %

     Double Excitation Contribution (+/-):          0.8552 %    /    2.8847 % 

     ||T1||/||T2||                       :          5.0733

     Norm of Total Amplitude Vector :          1.0000


 +=============================================================================+
 | symmetry|  orbital index  |   Excitation Numbers             |   Amplitude  |
 |  Index  |   a   b   i   j |      NAI      NBJ |     NAIBJ    |              |
 +=============================================================================+
 | 1   1   |   1       3     |       17          |              |    0.965178  |
 +-----------------------------------------------------------------------------+
 | 1 1 1 1 |   3   1   3   3 |       19       17 | (-)      188 |   -0.062609  |
 | 2 1 2 1 |   1   1   1   3 |       25       17 | (+)      317 |   -0.042505  |
 | 2 1 2 1 |   1   1   1   3 |       25       17 | (-)      317 |   -0.053442  |
 | 3 1 3 1 |   1   1   1   3 |       28       17 | (+)      395 |   -0.041768  |
 | 3 1 3 1 |   1   1   1   3 |       28       17 | (-)      395 |   -0.073381  |
 | 3 1 3 1 |   2   1   1   3 |       29       17 | (-)      423 |   -0.044564  |
 +=============================================================================+


          Norm of Printed Amplitude Vector :             0.9743


          Printed all single excitations greater than  0.196224


          Printed all double excitations greater than  0.038678


 Analysis of the Coupled Cluster Excitation Vector Number :  2
 -------------------------------------------------------------

          Excitation Energy :                            15.5242 eV


     CC_PRAM:Overall Contribution of the Different Components
     --------------------------------------------------------



     Single Excitation Contribution      :         97.4260 %

     Double Excitation Contribution (+/-):          0.6856 %    /    1.8884 % 

     ||T1||/||T2||                       :          6.1522

     Norm of Total Amplitude Vector :          1.0000


 +=============================================================================+
 | symmetry|  orbital index  |   Excitation Numbers             |   Amplitude  |
 |  Index  |   a   b   i   j |      NAI      NBJ |     NAIBJ    |              |
 +=============================================================================+
 | 3   3   |   1       1     |       28          |              |    0.940786  |
 | 3   3   |   2       1     |       29          |              |    0.225642  |
 +-----------------------------------------------------------------------------+
 | 3 1 3 1 |   1   1   1   3 |       28       17 | (-)      395 |    0.044632  |
 | 3 2 3 2 |   1   1   1   1 |       28       25 | (+)      403 |   -0.035110  |
 | 3 2 3 2 |   1   1   1   1 |       28       25 | (-)      403 |    0.035572  |
 | 3 3 3 3 |   3   1   1   1 |       30       28 | (-)      463 |   -0.038542  |
 +=============================================================================+


          Norm of Printed Amplitude Vector :             0.9706


          Printed all single excitations greater than  0.197409


          Printed all double excitations greater than  0.032088


 Analysis of the Coupled Cluster Excitation Vector Number :  3
 -------------------------------------------------------------

          Excitation Energy :                            24.3296 eV


     CC_PRAM:Overall Contribution of the Different Components
     --------------------------------------------------------



     Single Excitation Contribution      :         95.5157 %

     Double Excitation Contribution (+/-):          0.6893 %    /    3.7950 % 

     ||T1||/||T2||                       :          4.6152

     Norm of Total Amplitude Vector :          1.0000


 +=============================================================================+
 | symmetry|  orbital index  |   Excitation Numbers             |   Amplitude  |
 |  Index  |   a   b   i   j |      NAI      NBJ |     NAIBJ    |              |
 +=============================================================================+
 | 1   1   |   1       2     |        9          |              |   -0.226853  |
 | 1   1   |   2       3     |       18          |              |    0.822711  |
 | 3   3   |   2       1     |       29          |              |   -0.361721  |
 +-----------------------------------------------------------------------------+
 | 1 1 1 1 |   2   1   3   3 |       18       17 | (-)      170 |    0.051663  |
 | 1 1 1 1 |   3   2   3   3 |       19       18 | (-)      189 |   -0.043297  |
 | 3 1 3 1 |   1   2   1   3 |       28       18 | (-)      396 |   -0.053781  |
 | 3 1 3 1 |   2   2   1   3 |       29       18 | (-)      424 |   -0.049048  |
 | 1 3 3 1 |   1   1   1   3 |       21       13 | (-)      974 |    0.042737  |
 | 1 3 3 1 |   1   2   1   3 |       21       14 | (-)      975 |    0.063977  |
 +=============================================================================+


          Norm of Printed Amplitude Vector :             0.9354


          Printed all single excitations greater than  0.195464


          Printed all double excitations greater than  0.042352


 *******************************************************************************

 --------------------------
 Symmetry class Nr.:     2
 Multiplicity      :     1
 --------------------------

 Length of Excitation vectors in this class is:      1066
 No Excitation Energies calculated in this symmetry class


 *******************************************************************************

 --------------------------
 Symmetry class Nr.:     2
 Multiplicity      :     3
 --------------------------

 Length of Excitation vectors in this class is:      2113
 Converging for  2 roots.
 Start vector guessed from diagonal
 ... selected element no. 10
 Start vector guessed from diagonal
 ... selected element no. 11


 SYMMETRY CLASS NR.    2
 MULTIPLICITY          3


 CCSD       right excitation energies:
 ====================================
 (conversion factor used: 1 au = 27.2113957 eV)

 Excitation no.       Hartree               eV 
 --------------       -------               --
         1            0.2760703268        7.5122557304
         2            0.8351528477       22.7256650130


 Total excited state energies for states of symmetry/spin    2    3
 Excitation no.       Energy (Hartree) 
 ------------------------------------- 
@@    2    1           -75.964009554913133
@@    2    2           -75.404927033965379


 Analysis of the Coupled Cluster Excitation Vector Number :  1
 -------------------------------------------------------------

          Excitation Energy :                             7.5123 eV


     CC_PRAM:Overall Contribution of the Different Components
     --------------------------------------------------------



     Single Excitation Contribution      :         95.8034 %

     Double Excitation Contribution (+/-):          0.8431 %    /    3.3535 % 

     ||T1||/||T2||                       :          4.7779

     Norm of Total Amplitude Vector :          1.0000


 +=============================================================================+
 | symmetry|  orbital index  |   Excitation Numbers             |   Amplitude  |
 |  Index  |   a   b   i   j |      NAI      NBJ |     NAIBJ    |              |
 +=============================================================================+
 | 1   2   |   1       1     |       10          |              |    0.966715  |
 +-----------------------------------------------------------------------------+
 | 2 1 1 1 |   2   2   1   3 |        2       18 | (-)      325 |    0.080481  |
 | 2 1 1 1 |   3   2   1   3 |        3       18 | (-)      326 |    0.049530  |
 | 1 1 2 1 |   1   1   1   3 |       10       17 | (-)      314 |    0.041950  |
 | 1 1 2 1 |   3   1   1   3 |       12       17 | (-)      316 |    0.051590  |
 | 4 1 3 1 |   1   1   1   3 |       18       17 | (-)      322 |    0.079861  |
 +=============================================================================+


          Norm of Printed Amplitude Vector :             0.9769


          Printed all single excitations greater than  0.195758


          Printed all double excitations greater than  0.040971


 Analysis of the Coupled Cluster Excitation Vector Number :  2
 -------------------------------------------------------------

          Excitation Energy :                            22.7257 eV


     CC_PRAM:Overall Contribution of the Different Components
     --------------------------------------------------------



     Single Excitation Contribution      :         93.9994 %

     Double Excitation Contribution (+/-):          0.9498 %    /    5.0508 % 

     ||T1||/||T2||                       :          3.9579

     Norm of Total Amplitude Vector :          1.0000


 +=============================================================================+
 | symmetry|  orbital index  |   Excitation Numbers             |   Amplitude  |
 |  Index  |   a   b   i   j |      NAI      NBJ |     NAIBJ    |              |
 +=============================================================================+
 | 1   2   |   2       1     |       11          |              |    0.957110  |
 +-----------------------------------------------------------------------------+
 | 1 1 2 1 |   4   3   1   3 |       13       19 | (-)      355 |    0.062473  |
 | 1 1 2 1 |   7   3   1   3 |       16       19 | (-)      358 |    0.071681  |
 | 1 1 2 1 |   8   3   1   3 |       17       19 | (-)      359 |    0.083790  |
 | 3 3 2 1 |   1   3   1   3 |        7       15 | (-)      844 |   -0.049337  |
 | 3 3 2 1 |   2   3   1   3 |        8       15 | (-)      845 |    0.050367  |
 | 2 3 3 1 |   3   2   1   3 |       15       14 | (-)      837 |   -0.052408  |
 +=============================================================================+


          Norm of Printed Amplitude Vector :             0.9695


          Printed all single excitations greater than  0.193907


          Printed all double excitations greater than  0.048992


 *******************************************************************************

 --------------------------
 Symmetry class Nr.:     3
 Multiplicity      :     1
 --------------------------

 Length of Excitation vectors in this class is:      1237
 No Excitation Energies calculated in this symmetry class


 *******************************************************************************

 --------------------------
 Symmetry class Nr.:     3
 Multiplicity      :     3
 --------------------------

 Length of Excitation vectors in this class is:      2446
 Converging for  3 roots.
 Start vector guessed from diagonal
 ... selected element no. 13
 Start vector guessed from diagonal
 ... selected element no. 21
 Start vector guessed from diagonal
 ... selected element no. 14


 SYMMETRY CLASS NR.    3
 MULTIPLICITY          3


 CCSD       right excitation energies:
 ====================================
 (conversion factor used: 1 au = 27.2113957 eV)

 Excitation no.       Hartree               eV 
 --------------       -------               --
         1            0.4411258362       12.0036446140
         2            0.5055901951       13.7578090505
         3            0.8517736112       23.1779389941


 Total excited state energies for states of symmetry/spin    3    3
 Excitation no.       Energy (Hartree) 
 ------------------------------------- 
@@    3    1           -75.798954045464782
@@    3    2           -75.734489686613799
@@    3    3           -75.388306270478722


 Analysis of the Coupled Cluster Excitation Vector Number :  1
 -------------------------------------------------------------

          Excitation Energy :                            12.0036 eV


     CC_PRAM:Overall Contribution of the Different Components
     --------------------------------------------------------



     Single Excitation Contribution      :         96.7110 %

     Double Excitation Contribution (+/-):          0.6773 %    /    2.6117 % 

     ||T1||/||T2||                       :          5.4226

     Norm of Total Amplitude Vector :          1.0000


 +=============================================================================+
 | symmetry|  orbital index  |   Excitation Numbers             |   Amplitude  |
 |  Index  |   a   b   i   j |      NAI      NBJ |     NAIBJ    |              |
 +=============================================================================+
 | 1   3   |   1       1     |       21          |              |    0.229531  |
 | 3   1   |   1       3     |       13          |              |    0.927561  |
 | 3   1   |   2       3     |       14          |              |    0.199813  |
 +-----------------------------------------------------------------------------+
 | 3 1 1 1 |   1   8   1   2 |        1       16 | (-)      421 |    0.047618  |
 | 3 1 1 1 |   4   8   1   2 |        4       16 | (-)      424 |    0.051194  |
 | 1 1 3 1 |   3   7   1   2 |       23       15 | (-)      415 |    0.058281  |
 | 4 2 1 1 |   1   3   1   3 |        1        9 | (+)     1045 |    0.038860  |
 +=============================================================================+


          Norm of Printed Amplitude Vector :             0.9812


          Printed all single excitations greater than  0.196684


          Printed all double excitations greater than  0.036271


 Analysis of the Coupled Cluster Excitation Vector Number :  2
 -------------------------------------------------------------

          Excitation Energy :                            13.7578 eV


     CC_PRAM:Overall Contribution of the Different Components
     --------------------------------------------------------



     Single Excitation Contribution      :         96.9580 %

     Double Excitation Contribution (+/-):          0.6685 %    /    2.3735 % 

     ||T1||/||T2||                       :          5.6456

     Norm of Total Amplitude Vector :          1.0000


 +=============================================================================+
 | symmetry|  orbital index  |   Excitation Numbers             |   Amplitude  |
 |  Index  |   a   b   i   j |      NAI      NBJ |     NAIBJ    |              |
 +=============================================================================+
 | 1   3   |   1       1     |       21          |              |    0.937541  |
 | 3   1   |   1       3     |       13          |              |   -0.230478  |
 +-----------------------------------------------------------------------------+
 | 3 2 1 2 |   5   1   1   1 |        5       25 | (-)      677 |    0.044312  |
 | 3 2 1 2 |   1   1   2   1 |        7       25 | (-)      679 |    0.038834  |
 | 3 2 1 2 |   1   1   3   1 |       13       25 | (-)      685 |    0.041316  |
 | 3 2 1 2 |   4   1   3   1 |       16       25 | (-)      688 |    0.047249  |
 | 2 1 3 2 |   1   7   1   1 |       13       16 | (+)     1162 |    0.037193  |
 +=============================================================================+


          Norm of Printed Amplitude Vector :             0.9700


          Printed all single excitations greater than  0.196935


          Printed all double excitations greater than  0.034883


 Analysis of the Coupled Cluster Excitation Vector Number :  3
 -------------------------------------------------------------

          Excitation Energy :                            23.1779 eV


     CC_PRAM:Overall Contribution of the Different Components
     --------------------------------------------------------



     Single Excitation Contribution      :         95.6157 %

     Double Excitation Contribution (+/-):          0.6728 %    /    3.7115 % 

     ||T1||/||T2||                       :          4.6700

     Norm of Total Amplitude Vector :          1.0000


 +=============================================================================+
 | symmetry|  orbital index  |   Excitation Numbers             |   Amplitude  |
 |  Index  |   a   b   i   j |      NAI      NBJ |     NAIBJ    |              |
 +=============================================================================+
 | 3   1   |   2       3     |       14          |              |    0.939884  |
 +-----------------------------------------------------------------------------+
 | 3 1 1 1 |   4   8   1   2 |        4       16 | (-)      424 |   -0.045697  |
 | 3 1 1 1 |   6   1   1   3 |        6       17 | (-)      454 |    0.042257  |
 | 3 1 1 1 |   3   1   2   3 |        9       17 | (-)      457 |    0.056527  |
 | 3 1 1 1 |   4   1   2   3 |       10       17 | (-)      458 |    0.055816  |
 | 1 1 3 1 |   8   8   1   2 |       28       16 | (-)      448 |    0.048555  |
 | 3 2 1 2 |   5   2   2   1 |       11       26 | (-)      711 |   -0.048179  |
 +=============================================================================+


          Norm of Printed Amplitude Vector :             0.9478


          Printed all single excitations greater than  0.195567


          Printed all double excitations greater than  0.041878


 *******************************************************************************

 --------------------------
 Symmetry class Nr.:     4
 Multiplicity      :     1
 --------------------------

 Length of Excitation vectors in this class is:      1042
 No Excitation Energies calculated in this symmetry class


 *******************************************************************************

 --------------------------
 Symmetry class Nr.:     4
 Multiplicity      :     3
 --------------------------

 Length of Excitation vectors in this class is:      2069
 Converging for  2 roots.
 Start vector guessed from diagonal
 ... selected element no.  7
 Start vector guessed from diagonal
 ... selected element no.  8


 SYMMETRY CLASS NR.    4
 MULTIPLICITY          3


 CCSD       right excitation energies:
 ====================================
 (conversion factor used: 1 au = 27.2113957 eV)

 Excitation no.       Hartree               eV 
 --------------       -------               --
         1            0.3612949347        9.8313352799
         2            0.7893606905       21.4795970288


 Total excited state energies for states of symmetry/spin    4    3
 Excitation no.       Energy (Hartree) 
 ------------------------------------- 
@@    4    1           -75.878784947020847
@@    4    2           -75.450719191194466


 Analysis of the Coupled Cluster Excitation Vector Number :  1
 -------------------------------------------------------------

          Excitation Energy :                             9.8313 eV


     CC_PRAM:Overall Contribution of the Different Components
     --------------------------------------------------------



     Single Excitation Contribution      :         95.9091 %

     Double Excitation Contribution (+/-):          0.7771 %    /    3.3138 % 

     ||T1||/||T2||                       :          4.8420

     Norm of Total Amplitude Vector :          1.0000


 +=============================================================================+
 | symmetry|  orbital index  |   Excitation Numbers             |   Amplitude  |
 |  Index  |   a   b   i   j |      NAI      NBJ |     NAIBJ    |              |
 +=============================================================================+
 | 3   2   |   1       1     |        7          |              |    0.958279  |
 +-----------------------------------------------------------------------------+
 | 4 1 1 1 |   1   7   3   2 |        5       15 | (-)      747 |    0.052451  |
 | 4 1 1 1 |   1   8   1   2 |        1       16 | (-)      758 |    0.058159  |
 | 3 1 2 1 |   6   6   1   2 |       12       14 | (-)      739 |    0.045142  |
 | 3 1 2 1 |   1   7   1   2 |        7       15 | (-)      749 |    0.045390  |
 | 2 1 3 1 |   1   7   1   2 |       13       15 | (-)      755 |    0.077104  |
 +=============================================================================+


          Norm of Printed Amplitude Vector :             0.9667


          Printed all single excitations greater than  0.195866


          Printed all double excitations greater than  0.040452


 Analysis of the Coupled Cluster Excitation Vector Number :  2
 -------------------------------------------------------------

          Excitation Energy :                            21.4796 eV


     CC_PRAM:Overall Contribution of the Different Components
     --------------------------------------------------------



     Single Excitation Contribution      :         94.5761 %

     Double Excitation Contribution (+/-):          0.7867 %    /    4.6372 % 

     ||T1||/||T2||                       :          4.1757

     Norm of Total Amplitude Vector :          1.0000


 +=============================================================================+
 | symmetry|  orbital index  |   Excitation Numbers             |   Amplitude  |
 |  Index  |   a   b   i   j |      NAI      NBJ |     NAIBJ    |              |
 +=============================================================================+
 | 3   2   |   2       1     |        8          |              |    0.956361  |
 +-----------------------------------------------------------------------------+
 | 3 1 1 2 |   6   6   3   1 |       18       15 | (-)      410 |   -0.056700  |
 | 4 1 1 1 |   1   1   1   3 |        1       17 | (-)      773 |   -0.048249  |
 | 4 1 1 1 |   1   2   1   3 |        1       18 | (-)      788 |    0.065699  |
 | 4 1 1 1 |   2   2   2   3 |        4       18 | (-)      791 |    0.064008  |
 | 4 1 1 1 |   1   2   3   3 |        5       18 | (-)      792 |    0.060828  |
 | 3 1 2 1 |   2   1   1   3 |        8       17 | (-)      780 |    0.052369  |
 | 3 1 2 1 |   3   1   1   3 |        9       17 | (-)      781 |   -0.050238  |
 +=============================================================================+


          Norm of Printed Amplitude Vector :             0.9683


          Printed all single excitations greater than  0.194500


          Printed all double excitations greater than  0.046579
   

 *******************************************************************
 *                                                                 *
 *---------- OUTPUT FROM COUPLED CLUSTER LINEAR RESPONSE >---------*
 *                                                                 *
 *----------     CALCULATION OF EXCITATION ENERGIES      >---------*
 *                                                                 *
 *******************************************************************



                           +---------------------------+
                           !  CCSD Excitation Energies !
                           +---------------------------+


 --------------------------
 Symmetry class Nr.:     1
 Multiplicity      :     1
 --------------------------

 Length of Excitation vectors in this class is:      1310
 No Excitation Energies calculated in this symmetry class

 --------------------------
 Symmetry class Nr.:     1
 Multiplicity      :     3
 --------------------------

 Length of Excitation vectors in this class is:      2587
 Converging for  3 roots.
Try to use right eigenvector as start for a left eigenvector.
 Vector nr.  1 of symmetry  1 found on file - RESTART SUCCESS
 Start vector is a  CCSD      RE vector
Try to use right eigenvector as start for a left eigenvector.
 Vector nr.  2 of symmetry  1 found on file - RESTART SUCCESS
 Start vector is a  CCSD      RE vector
Try to use right eigenvector as start for a left eigenvector.
 Vector nr.  3 of symmetry  1 found on file - RESTART SUCCESS
 Start vector is a  CCSD      RE vector
  NREDH :          201
  MXLRV :          199

 ATTENTION!!!! 

 All trial and transformed vectors are skipped and the iterative procedure 
 is continued from the current optimal solution 

 Notice: You asked for it by setting a low MXLRV.

 Vector nr.  1 of symmetry  1 found on file - RESTART SUCCESS
 Start vector is a CCSD      LE  vector
 Vector nr.  2 of symmetry  1 found on file - RESTART SUCCESS
 Start vector is a CCSD      LE  vector
 Vector nr.  3 of symmetry  1 found on file - RESTART SUCCESS
 Start vector is a CCSD      LE  vector


 SYMMETRY CLASS NR.    1
 MULTIPLICITY          3


 CCSD       left excitation energies:
 ====================================
 (conversion factor used: 1 au = 27.2113957 eV)

 Excitation no.       Hartree               eV 
 --------------       -------               --
         1            0.3652639767        9.9393384094
         2            0.5705027656       15.5241699470
         3            0.8940962098       24.3295954861


 Total excited state energies for states of symmetry/spin    1    3
 Excitation no.       Energy (Hartree) 
 ------------------------------------- 
@@    1    1           -75.874815904922997
@@    1    2           -75.669577116094203
@@    1    3           -75.345983671851712


 Analysis of the Coupled Cluster Excitation Vector Number :  1
 -------------------------------------------------------------

          Excitation Energy :                             9.9393 eV


     CC_PRAM:Overall Contribution of the Different Components
     --------------------------------------------------------



     Single Excitation Contribution      :         95.1329 %

     Double Excitation Contribution (+/-):          1.3252 %    /    3.5419 % 

     ||T1||/||T2||                       :          4.4211

     Norm of Total Amplitude Vector :          1.0000


 +=============================================================================+
 | symmetry|  orbital index  |   Excitation Numbers             |   Amplitude  |
 |  Index  |   a   b   i   j |      NAI      NBJ |     NAIBJ    |              |
 +=============================================================================+
 | 1   1   |   1       3     |       17          |              |    0.959725  |
 +-----------------------------------------------------------------------------+
 | 1 1 1 1 |   3   1   3   3 |       19       17 | (-)      188 |   -0.070558  |
 | 2 1 2 1 |   1   1   1   3 |       25       17 | (+)      317 |   -0.054300  |
 | 2 1 2 1 |   1   1   1   3 |       25       17 | (-)      317 |   -0.063340  |
 | 3 1 3 1 |   1   1   1   3 |       28       17 | (+)      395 |   -0.054574  |
 | 3 1 3 1 |   1   1   1   3 |       28       17 | (-)      395 |   -0.081852  |
 | 3 1 3 1 |   2   1   1   3 |       29       17 | (+)      423 |   -0.044289  |
 | 3 1 3 1 |   2   1   1   3 |       29       17 | (-)      423 |   -0.051385  |
 +=============================================================================+


          Norm of Printed Amplitude Vector :             0.9733


          Printed all single excitations greater than  0.195072


          Printed all double excitations greater than  0.044123


 Analysis of the Coupled Cluster Excitation Vector Number :  2
 -------------------------------------------------------------

          Excitation Energy :                            15.5242 eV


     CC_PRAM:Overall Contribution of the Different Components
     --------------------------------------------------------



     Single Excitation Contribution      :         96.7971 %

     Double Excitation Contribution (+/-):          0.9738 %    /    2.2291 % 

     ||T1||/||T2||                       :          5.4974

     Norm of Total Amplitude Vector :          1.0000


 +=============================================================================+
 | symmetry|  orbital index  |   Excitation Numbers             |   Amplitude  |
 |  Index  |   a   b   i   j |      NAI      NBJ |     NAIBJ    |              |
 +=============================================================================+
 | 3   3   |   1       1     |       28          |              |    0.938371  |
 | 3   3   |   2       1     |       29          |              |    0.222898  |
 +-----------------------------------------------------------------------------+
 | 3 1 3 1 |   1   1   1   2 |       28        9 | (+)      387 |   -0.036886  |
 | 3 1 3 1 |   1   1   1   3 |       28       17 | (-)      395 |    0.046552  |
 | 3 1 3 1 |   1   3   1   3 |       28       19 | (-)      397 |    0.036997  |
 | 3 2 3 2 |   1   1   1   1 |       28       25 | (+)      403 |   -0.042841  |
 | 3 2 3 2 |   1   1   1   1 |       28       25 | (-)      403 |    0.042564  |
 | 3 3 3 3 |   3   1   1   1 |       30       28 | (-)      463 |   -0.046392  |
 +=============================================================================+


          Norm of Printed Amplitude Vector :             0.9700


          Printed all single excitations greater than  0.196771


          Printed all double excitations greater than  0.035793


 Analysis of the Coupled Cluster Excitation Vector Number :  3
 -------------------------------------------------------------

          Excitation Energy :                            24.3296 eV


     CC_PRAM:Overall Contribution of the Different Components
     --------------------------------------------------------



     Single Excitation Contribution      :         94.4275 %

     Double Excitation Contribution (+/-):          1.1135 %    /    4.4590 % 

     ||T1||/||T2||                       :          4.1165

     Norm of Total Amplitude Vector :          1.0000


 +=============================================================================+
 | symmetry|  orbital index  |   Excitation Numbers             |   Amplitude  |
 |  Index  |   a   b   i   j |      NAI      NBJ |     NAIBJ    |              |
 +=============================================================================+
 | 1   1   |   1       2     |        9          |              |   -0.221870  |
 | 1   1   |   2       3     |       18          |              |    0.819624  |
 | 3   3   |   2       1     |       29          |              |   -0.359337  |
 +-----------------------------------------------------------------------------+
 | 1 1 1 1 |   2   1   3   3 |       18       17 | (-)      170 |    0.056713  |
 | 1 1 1 1 |   3   2   3   3 |       19       18 | (-)      189 |   -0.049134  |
 | 3 1 3 1 |   1   1   1   3 |       28       17 | (+)      395 |   -0.053707  |
 | 3 1 3 1 |   1   2   1   3 |       28       18 | (-)      396 |   -0.059658  |
 | 3 1 3 1 |   2   2   1   3 |       29       18 | (-)      424 |   -0.051769  |
 | 1 3 3 1 |   1   2   1   3 |       21       14 | (-)      975 |    0.064235  |
 +=============================================================================+


          Norm of Printed Amplitude Vector :             0.9322


          Printed all single excitations greater than  0.194348


          Printed all double excitations greater than  0.047212



+======================================================================+
| contributions of excitation levels to right eigenvectors as computed |
| from the (RE|RE) self overlap                                        |
+----------------------------------------------------------------------+
| sym | multi | state |    E / eV  | % singles | % doubles | % triples |
+======================================================================+
|    1|   3   |   1   |    9.93934 |  96.2600  |   3.7400  |   0.0000  |
|    1|   3   |   2   |   15.52417 |  97.4260  |   2.5740  |   0.0000  |
|    1|   3   |   3   |   24.32960 |  95.5157  |   4.4843  |   0.0000  |
+======================================================================+





+======================================================================+
| contributions of excitation levels to excited states as computed     |
| from the (LE|RE) overlap                                             |
+----------------------------------------------------------------------+
| sym | multi | state |    E / eV  | % singles | % doubles | % triples |
+======================================================================+
|    1|   3   |   1   |    9.93934 |  95.7497  |   4.2503  |   0.0000  |
|    1|   3   |   2   |   15.52417 |  97.1425  |   2.8575  |   0.0000  |
|    1|   3   |   3   |   24.32960 |  95.0310  |   4.9690  |   0.0000  |
+======================================================================+




 *******************************************************************************

 --------------------------
 Symmetry class Nr.:     2
 Multiplicity      :     1
 --------------------------

 Length of Excitation vectors in this class is:      1066
 No Excitation Energies calculated in this symmetry class


 *******************************************************************************

 --------------------------
 Symmetry class Nr.:     2
 Multiplicity      :     3
 --------------------------

 Length of Excitation vectors in this class is:      2113
 Converging for  2 roots.
Try to use right eigenvector as start for a left eigenvector.
 Vector nr.  4 of symmetry  2 found on file - RESTART SUCCESS
 Start vector is a  CCSD      RE vector
Try to use right eigenvector as start for a left eigenvector.
 Vector nr.  5 of symmetry  2 found on file - RESTART SUCCESS
 Start vector is a  CCSD      RE vector
  NREDH :          200
  MXLRV :          199

 ATTENTION!!!! 

 All trial and transformed vectors are skipped and the iterative procedure 
 is continued from the current optimal solution 

 Notice: You asked for it by setting a low MXLRV.

 Vector nr.  4 of symmetry  2 found on file - RESTART SUCCESS
 Start vector is a CCSD      LE  vector
 Vector nr.  5 of symmetry  2 found on file - RESTART SUCCESS
 Start vector is a CCSD      LE  vector


 SYMMETRY CLASS NR.    2
 MULTIPLICITY          3


 CCSD       left excitation energies:
 ====================================
 (conversion factor used: 1 au = 27.2113957 eV)

 Excitation no.       Hartree               eV 
 --------------       -------               --
         1            0.2760703268        7.5122557304
         2            0.8351528477       22.7256650130


 Total excited state energies for states of symmetry/spin    2    3
 Excitation no.       Energy (Hartree) 
 ------------------------------------- 
@@    2    1           -75.964009554912920
@@    2    2           -75.404927033965180


 Analysis of the Coupled Cluster Excitation Vector Number :  1
 -------------------------------------------------------------

          Excitation Energy :                             7.5123 eV


     CC_PRAM:Overall Contribution of the Different Components
     --------------------------------------------------------



     Single Excitation Contribution      :         94.5124 %

     Double Excitation Contribution (+/-):          1.3506 %    /    4.1369 % 

     ||T1||/||T2||                       :          4.1501

     Norm of Total Amplitude Vector :          1.0000


 +=============================================================================+
 | symmetry|  orbital index  |   Excitation Numbers             |   Amplitude  |
 |  Index  |   a   b   i   j |      NAI      NBJ |     NAIBJ    |              |
 +=============================================================================+
 | 1   2   |   1       1     |       10          |              |   -0.960564  |
 +-----------------------------------------------------------------------------+
 | 2 1 1 1 |   2   2   1   3 |        2       18 | (+)      325 |    0.053187  |
 | 2 1 1 1 |   2   2   1   3 |        2       18 | (-)      325 |   -0.090322  |
 | 2 1 1 1 |   3   2   1   3 |        3       18 | (-)      326 |   -0.057654  |
 | 1 1 2 1 |   1   1   1   3 |       10       17 | (-)      314 |   -0.048387  |
 | 1 1 2 1 |   3   1   1   3 |       12       17 | (-)      316 |   -0.060681  |
 | 4 1 3 1 |   1   1   1   3 |       18       17 | (-)      322 |   -0.089121  |
 | 4 1 3 1 |   2   4   1   3 |       19       20 | (+)      380 |   -0.048767  |
 +=============================================================================+


          Norm of Printed Amplitude Vector :             0.9764


          Printed all single excitations greater than  0.194435


          Printed all double excitations greater than  0.046851


 Analysis of the Coupled Cluster Excitation Vector Number :  2
 -------------------------------------------------------------

          Excitation Energy :                            22.7257 eV


     CC_PRAM:Overall Contribution of the Different Components
     --------------------------------------------------------



     Single Excitation Contribution      :         92.5974 %

     Double Excitation Contribution (+/-):          1.5325 %    /    5.8701 % 

     ||T1||/||T2||                       :          3.5368

     Norm of Total Amplitude Vector :          1.0000


 +=============================================================================+
 | symmetry|  orbital index  |   Excitation Numbers             |   Amplitude  |
 |  Index  |   a   b   i   j |      NAI      NBJ |     NAIBJ    |              |
 +=============================================================================+
 | 1   2   |   2       1     |       11          |              |   -0.949827  |
 +-----------------------------------------------------------------------------+
 | 1 1 2 1 |   4   3   1   3 |       13       19 | (-)      355 |   -0.070281  |
[...]
     +-----------+-----------------+-----------------+---------------------+
     | XDIPLEN   |      0.00000000 |      0.00000000 |       0.00000000    |
     | YDIPLEN   |      0.00000000 |      0.00000000 |       0.00000000    |
     | ZDIPLEN   |     -0.00253576 |     -0.00208608 |       0.00000529    |
     +-----------+-----------------+-----------------+---------------------+
       oscillator strength (length gauge)   :      0.00000122


     Transition from excited state:
     number, multiplicity, symmetry :    9  ^3A2 
     to state:
     number, multiplicity, symmetry :    1  ^3A1 
     transition frequency :   0.0039690421 a.u.     0.10800 e.V.       871.1 cm^-1

     +-----------+-----------------+-----------------+---------------------+
     | operator  |   left moment   |  right moment   | transition strength |
     +-----------+-----------------+-----------------+---------------------+
     | XDIPLEN   |      0.00000000 |      0.00000000 |       0.00000000    |
     | YDIPLEN   |      0.00000000 |      0.00000000 |       0.00000000    |
     | ZDIPLEN   |      0.00000000 |      0.00000000 |       0.00000000    |
     +-----------+-----------------+-----------------+---------------------+
       oscillator strength (length gauge)   :      0.00000000


     Transition from excited state:
     number, multiplicity, symmetry :    9  ^3A2 
     to state:
     number, multiplicity, symmetry :    2  ^3A1 
     transition frequency :   0.2092078309 a.u.     5.69283 e.V.     45915.8 cm^-1

     +-----------+-----------------+-----------------+---------------------+
     | operator  |   left moment   |  right moment   | transition strength |
     +-----------+-----------------+-----------------+---------------------+
     | XDIPLEN   |      0.00000000 |      0.00000000 |       0.00000000    |
     | YDIPLEN   |      0.00000000 |      0.00000000 |       0.00000000    |
     | ZDIPLEN   |      0.00000000 |      0.00000000 |       0.00000000    |
     +-----------+-----------------+-----------------+---------------------+
       oscillator strength (length gauge)   :      0.00000000


     Transition from excited state:
     number, multiplicity, symmetry :    9  ^3A2 
     to state:
     number, multiplicity, symmetry :    3  ^3A1 
     transition frequency :   0.5328012752 a.u.    14.49826 e.V.    116936.4 cm^-1

     +-----------+-----------------+-----------------+---------------------+
     | operator  |   left moment   |  right moment   | transition strength |
     +-----------+-----------------+-----------------+---------------------+
     | XDIPLEN   |      0.00000000 |      0.00000000 |       0.00000000    |
     | YDIPLEN   |      0.00000000 |      0.00000000 |       0.00000000    |
     | ZDIPLEN   |      0.00000000 |      0.00000000 |       0.00000000    |
     +-----------+-----------------+-----------------+---------------------+
       oscillator strength (length gauge)   :      0.00000000


     Transition from excited state:
     number, multiplicity, symmetry :   10  ^3A2 
     to state:
     number, multiplicity, symmetry :    1  ^3A1 
     transition frequency :   0.4240967137 a.u.    11.54026 e.V.     93078.5 cm^-1

     +-----------+-----------------+-----------------+---------------------+
     | operator  |   left moment   |  right moment   | transition strength |
     +-----------+-----------------+-----------------+---------------------+
     | XDIPLEN   |      0.00000000 |      0.00000000 |       0.00000000    |
     | YDIPLEN   |      0.00000000 |      0.00000000 |       0.00000000    |
     | ZDIPLEN   |      0.00000000 |      0.00000000 |       0.00000000    |
     +-----------+-----------------+-----------------+---------------------+
       oscillator strength (length gauge)   :      0.00000000


     Transition from excited state:
     number, multiplicity, symmetry :   10  ^3A2 
     to state:
     number, multiplicity, symmetry :    2  ^3A1 
     transition frequency :   0.2188579249 a.u.     5.95543 e.V.     48033.8 cm^-1

     +-----------+-----------------+-----------------+---------------------+
     | operator  |   left moment   |  right moment   | transition strength |
     +-----------+-----------------+-----------------+---------------------+
     | XDIPLEN   |      0.00000000 |      0.00000000 |       0.00000000    |
     | YDIPLEN   |      0.00000000 |      0.00000000 |       0.00000000    |
     | ZDIPLEN   |      0.00000000 |      0.00000000 |       0.00000000    |
     +-----------+-----------------+-----------------+---------------------+
       oscillator strength (length gauge)   :      0.00000000


     Transition from excited state:
     number, multiplicity, symmetry :   10  ^3A2 
     to state:
     number, multiplicity, symmetry :    3  ^3A1 
     transition frequency :   0.1047355193 a.u.     2.85000 e.V.     22986.8 cm^-1

     +-----------+-----------------+-----------------+---------------------+
     | operator  |   left moment   |  right moment   | transition strength |
     +-----------+-----------------+-----------------+---------------------+
     | XDIPLEN   |      0.00000000 |      0.00000000 |       0.00000000    |
     | YDIPLEN   |      0.00000000 |      0.00000000 |       0.00000000    |
     | ZDIPLEN   |      0.00000000 |      0.00000000 |       0.00000000    |
     +-----------+-----------------+-----------------+---------------------+
       oscillator strength (length gauge)   :      0.00000000


     Transition from excited state:
     number, multiplicity, symmetry :    9  ^3A2 
     to state:
     number, multiplicity, symmetry :    4  ^3B1 
     transition frequency :   0.0852246079 a.u.     2.31908 e.V.     18704.6 cm^-1

     +-----------+-----------------+-----------------+---------------------+
     | operator  |   left moment   |  right moment   | transition strength |
     +-----------+-----------------+-----------------+---------------------+
     | XDIPLEN   |      0.00000000 |      0.00000000 |       0.00000000    |
     | YDIPLEN   |      1.73439863 |      1.73765150 |       3.01378037    |
     | ZDIPLEN   |      0.00000000 |      0.00000000 |       0.00000000    |
     +-----------+-----------------+-----------------+---------------------+
       oscillator strength (length gauge)   :      0.17123217


     Transition from excited state:
     number, multiplicity, symmetry :    9  ^3A2 
     to state:
     number, multiplicity, symmetry :    5  ^3B1 
     transition frequency :   0.4738579131 a.u.    12.89433 e.V.    103999.8 cm^-1

     +-----------+-----------------+-----------------+---------------------+
     | operator  |   left moment   |  right moment   | transition strength |
     +-----------+-----------------+-----------------+---------------------+
     | XDIPLEN   |      0.00000000 |      0.00000000 |       0.00000000    |
     | YDIPLEN   |      0.43529730 |      0.43399223 |       0.18891565    |
     | ZDIPLEN   |      0.00000000 |      0.00000000 |       0.00000000    |
     +-----------+-----------------+-----------------+---------------------+
       oscillator strength (length gauge)   :      0.05967945


     Transition from excited state:
     number, multiplicity, symmetry :   10  ^3A2 
     to state:
     number, multiplicity, symmetry :    4  ^3B1 
     transition frequency :   0.5132903637 a.u.    13.96734 e.V.    112654.2 cm^-1

     +-----------+-----------------+-----------------+---------------------+
     | operator  |   left moment   |  right moment   | transition strength |
     +-----------+-----------------+-----------------+---------------------+
     | XDIPLEN   |      0.00000000 |      0.00000000 |       0.00000000    |
     | YDIPLEN   |     -0.73140910 |     -0.72965738 |       0.53367804    |
     | ZDIPLEN   |      0.00000000 |      0.00000000 |       0.00000000    |
     +-----------+-----------------+-----------------+---------------------+
       oscillator strength (length gauge)   :      0.18262120


     Transition from excited state:
     number, multiplicity, symmetry :   10  ^3A2 
     to state:
     number, multiplicity, symmetry :    5  ^3B1 
     transition frequency :   0.0457921572 a.u.     1.24607 e.V.     10050.2 cm^-1

     +-----------+-----------------+-----------------+---------------------+
     | operator  |   left moment   |  right moment   | transition strength |
     +-----------+-----------------+-----------------+---------------------+
     | XDIPLEN   |      0.00000000 |      0.00000000 |       0.00000000    |
     | YDIPLEN   |     -1.09449738 |     -1.09833853 |       1.20212865    |
     | ZDIPLEN   |      0.00000000 |      0.00000000 |       0.00000000    |
     +-----------+-----------------+-----------------+---------------------+
       oscillator strength (length gauge)   :      0.03669871


     Transition from excited state:
     number, multiplicity, symmetry :    9  ^3A2 
     to state:
     number, multiplicity, symmetry :    6  ^3B2 
     transition frequency :   0.0798309016 a.u.     2.17231 e.V.     17520.9 cm^-1

     +-----------+-----------------+-----------------+---------------------+
     | operator  |   left moment   |  right moment   | transition strength |
     +-----------+-----------------+-----------------+---------------------+
     | XDIPLEN   |      0.13695256 |      0.13717697 |       0.01878674    |
     | YDIPLEN   |      0.00000000 |      0.00000000 |       0.00000000    |
     | ZDIPLEN   |      0.00000000 |      0.00000000 |       0.00000000    |
     +-----------+-----------------+-----------------+---------------------+
       oscillator strength (length gauge)   :      0.00099984


     Transition from excited state:
     number, multiplicity, symmetry :    9  ^3A2 
     to state:
     number, multiplicity, symmetry :    7  ^3B2 
     transition frequency :   0.1442952604 a.u.     3.92647 e.V.     31669.1 cm^-1

     +-----------+-----------------+-----------------+---------------------+
     | operator  |   left moment   |  right moment   | transition strength |
     +-----------+-----------------+-----------------+---------------------+
     | XDIPLEN   |     -0.04614374 |     -0.04670079 |       0.00215495    |
     | YDIPLEN   |      0.00000000 |      0.00000000 |       0.00000000    |
     | ZDIPLEN   |      0.00000000 |      0.00000000 |       0.00000000    |
     +-----------+-----------------+-----------------+---------------------+
       oscillator strength (length gauge)   :      0.00020730


     Transition from excited state:
     number, multiplicity, symmetry :    9  ^3A2 
     to state:
     number, multiplicity, symmetry :    8  ^3B2 
     transition frequency :   0.4904786765 a.u.    13.34660 e.V.    107647.6 cm^-1

     +-----------+-----------------+-----------------+---------------------+
     | operator  |   left moment   |  right moment   | transition strength |
     +-----------+-----------------+-----------------+---------------------+
     | XDIPLEN   |     -0.00700734 |     -0.00785708 |       0.00005506    |
     | YDIPLEN   |      0.00000000 |      0.00000000 |       0.00000000    |
     | ZDIPLEN   |      0.00000000 |      0.00000000 |       0.00000000    |
     +-----------+-----------------+-----------------+---------------------+
       oscillator strength (length gauge)   :      0.00001800


     Transition from excited state:
     number, multiplicity, symmetry :   10  ^3A2 
     to state:
     number, multiplicity, symmetry :    6  ^3B2 
     transition frequency :   0.3482348543 a.u.     9.47595 e.V.     76428.7 cm^-1

     +-----------+-----------------+-----------------+---------------------+
     | operator  |   left moment   |  right moment   | transition strength |
     +-----------+-----------------+-----------------+---------------------+
     | XDIPLEN   |      0.00577754 |      0.00626116 |       0.00003617    |
     | YDIPLEN   |      0.00000000 |      0.00000000 |       0.00000000    |
     | ZDIPLEN   |      0.00000000 |      0.00000000 |       0.00000000    |
     +-----------+-----------------+-----------------+---------------------+
       oscillator strength (length gauge)   :      0.00000840


     Transition from excited state:
     number, multiplicity, symmetry :   10  ^3A2 
     to state:
     number, multiplicity, symmetry :    7  ^3B2 
     transition frequency :   0.2837704954 a.u.     7.72179 e.V.     62280.4 cm^-1

     +-----------+-----------------+-----------------+---------------------+
     | operator  |   left moment   |  right moment   | transition strength |
     +-----------+-----------------+-----------------+---------------------+
     | XDIPLEN   |      0.00442609 |      0.00313024 |       0.00001385    |
     | YDIPLEN   |      0.00000000 |      0.00000000 |       0.00000000    |
     | ZDIPLEN   |      0.00000000 |      0.00000000 |       0.00000000    |
     +-----------+-----------------+-----------------+---------------------+
       oscillator strength (length gauge)   :      0.00000262


     Transition from excited state:
     number, multiplicity, symmetry :   10  ^3A2 
     to state:
     number, multiplicity, symmetry :    8  ^3B2 
     transition frequency :   0.0624129207 a.u.     1.69834 e.V.     13698.1 cm^-1

     +-----------+-----------------+-----------------+---------------------+
     | operator  |   left moment   |  right moment   | transition strength |
     +-----------+-----------------+-----------------+---------------------+
     | XDIPLEN   |      0.12020944 |      0.11969280 |       0.01438820    |
     | YDIPLEN   |      0.00000000 |      0.00000000 |       0.00000000    |
     | ZDIPLEN   |      0.00000000 |      0.00000000 |       0.00000000    |
     +-----------+-----------------+-----------------+---------------------+
       oscillator strength (length gauge)   :      0.00059867


     Transition from excited state:
     number, multiplicity, symmetry :   10  ^3A2 
     to state:
     number, multiplicity, symmetry :    9  ^3A2 
     transition frequency :   0.4280657558 a.u.    11.64826 e.V.     93949.6 cm^-1

     +-----------+-----------------+-----------------+---------------------+
     | operator  |   left moment   |  right moment   | transition strength |
     +-----------+-----------------+-----------------+---------------------+
     | XDIPLEN   |      0.00000000 |      0.00000000 |       0.00000000    |
     | YDIPLEN   |      0.00000000 |      0.00000000 |       0.00000000    |
     | ZDIPLEN   |     -0.15290931 |     -0.16516533 |       0.02525532    |
     +-----------+-----------------+-----------------+---------------------+
       oscillator strength (length gauge)   :      0.00720729
  

 *******************************************************************************
 *******************************************************************************
 *                                                                             *
 *                                                                             *
 *                   SUMMARY OF COUPLED CLUSTER CALCULATION                    *
 *                                                                             *
 *                                                                             *
 *******************************************************************************
 *******************************************************************************

                                                                                
                                                                                
            Total SCF   energy:                   -76.0268081652                
            Total MP2   energy:                   -76.2307563423                
            Total CCSD  energy:                   -76.2400798817                
                                                                                
                                                                                
 +=============================================================================+
 |  sym. | Exci.  |        CCSD       Excitation energies            | ||T1||  |
 |(spin, |        +------------------------------------------------------------+
 | spat) |        |     Hartree    |       eV.      |     cm-1       |    %    |
 +=============================================================================+
 | ^3A1  |    1   |     0.3652640  |       9.93934  |     80166.176  |  96.26  |
 | ^3A1  |    2   |     0.5705028  |      15.52417  |    125210.883  |  97.43  |
 | ^3A1  |    3   |     0.8940962  |      24.32960  |    196231.434  |  95.52  |
 +-----------------------------------------------------------------------------+
 | ^3B1  |    1   |     0.2760703  |       7.51226  |     60590.433  |  95.80  |
 | ^3B1  |    2   |     0.8351528  |      22.72567  |    183294.862  |  94.00  |
 +-----------------------------------------------------------------------------+
 | ^3B2  |    1   |     0.4411258  |      12.00364  |     96815.929  |  96.71  |
 | ^3B2  |    2   |     0.5055902  |      13.75781  |    110964.221  |  96.96  |
 | ^3B2  |    3   |     0.8517736  |      23.17794  |    186942.698  |  95.62  |
 +-----------------------------------------------------------------------------+
 | ^3A2  |    1   |     0.3612949  |       9.83134  |     79295.072  |  95.91  |
 | ^3A2  |    2   |     0.7893607  |      21.47960  |    173244.645  |  94.58  |
 +=============================================================================+
                                                                                
                                                                                
     Total energies in Hartree:                                                 
             1 ^3A1       -75.8748159049                                        
             2 ^3A1       -75.6695771161                                        
             3 ^3A1       -75.3459836719                                        
             1 ^3B1       -75.9640095549                                        
             2 ^3B1       -75.4049270340                                        
             1 ^3B2       -75.7989540455                                        
             2 ^3B2       -75.7344896866                                        
             3 ^3B2       -75.3883062705                                        
             1 ^3A2       -75.8787849470                                        
             2 ^3A2       -75.4507191912                                        

  1 a.u. =        27.21138 eV.  
  1 a.u. =    219474.62934 cm-1.
  

 *******************************************************************************
 *******************************************************************************
 *                                                                             *
 *                                                                             *
 *                      END OF COUPLED CLUSTER CALCULATION                     *
 *                                                                             *
 *                                                                             *
 *******************************************************************************
 *******************************************************************************


 CPU and wall time for CC :      18.119      22.876

 
     Date and time (Linux)  : Thu Nov 30 15:31:51 2017
     Host name              : kemi-czc7084xz.win.dtu.dk               


                      .-------------------------------------.
                      | End of Coupled Cluster Section (CC) |
                      `-------------------------------------'

  Total CPU  time used in DALTON:  18.17 seconds
  Total wall time used in DALTON:  22.93 seconds

 
     Date and time (Linux)  : Thu Nov 30 15:31:51 2017
     Host name              : kemi-czc7084xz.win.dtu.dk               
