

     ************************************************************************
     *************** Dalton - An Electronic Structure Program ***************
     ************************************************************************

    This is output from DALTON (Release Dalton2013 patch 0)
   ----------------------------------------------------------------------------
    NOTE:
     
    Dalton is an experimental code for the evaluation of molecular
    properties using (MC)SCF, DFT, CI, and CC wave functions.
    The authors accept no responsibility for the performance of
    the code or for the correctness of the results.
     
    The code (in whole or part) is provided under a licence and
    is not to be reproduced for further distribution without
    the written permission of the authors or their representatives.
     
    See the home page "http://daltonprogram.org" for further information.
     
    If results obtained with this code are published,
    the appropriate citations would be both of:
     
       K. Aidas, C. Angeli, K. L. Bak, V. Bakken, R. Bast,
       L. Boman, O. Christiansen, R. Cimiraglia, S. Coriani,
       P. Dahle, E. K. Dalskov, U. Ekstroem, T. Enevoldsen,
       J. J. Eriksen, P. Ettenhuber, B. Fernandez, L. Ferrighi,
       H. Fliegl, L. Frediani, K. Hald, A. Halkier, C. Haettig,
       H. Heiberg, T. Helgaker, A. C. Hennum, H. Hettema,
       E. Hjertenaes, S. Hoest, I.-M. Hoeyvik, M. F. Iozzi,
       B. Jansik, H. J. Aa. Jensen, D. Jonsson, P. Joergensen,
       J. Kauczor, S. Kirpekar, T. Kjaergaard, W. Klopper,
       S. Knecht, R. Kobayashi, H. Koch, J. Kongsted, A. Krapp,
       K. Kristensen, A. Ligabue, O. B. Lutnaes, J. I. Melo,
       K. V. Mikkelsen, R. H. Myhre, C. Neiss, C. B. Nielsen,
       P. Norman, J. Olsen, J. M. H. Olsen, A. Osted,
       M. J. Packer, F. Pawlowski, T. B. Pedersen, P. F. Provasi,
       S. Reine, Z. Rinkevicius, T. A. Ruden, K. Ruud, V. Rybkin,
       P. Salek, C. C. M. Samson, A. Sanchez de Meras, T. Saue,
       S. P. A. Sauer, B. Schimmelpfennig, K. Sneskov,
       A. H. Steindal, K. O. Sylvester-Hvid, P. R. Taylor,
       A. M. Teale, E. I. Tellgren, D. P. Tew, A. J. Thorvaldsen,
       L. Thoegersen, O. Vahtras, M. A. Watson, D. J. D. Wilson,
       M. Ziolkowski and H. Agren,
       "The Dalton quantum chemistry program system",
       WIREs Comput. Mol. Sci. 2013. (doi: 10.1002/wcms.1172)
    
    and
    
       Dalton, a Molecular Electronic Structure Program,
       Release DALTON2013.0 (2013), see http://daltonprogram.org
   ----------------------------------------------------------------------------

    Authors in alphabetical order (major contribution(s) in parenthesis):

  Kestutis Aidas,           Vilnius University,           Lithuania   (QM/MM)
  Celestino Angeli,         University of Ferrara,        Italy       (NEVPT2)
  Keld L. Bak,              UNI-C,                        Denmark     (AOSOPPA, non-adiabatic coupling, magnetic properties)
  Vebjoern Bakken,          University of Oslo,           Norway      (DALTON; geometry optimizer, symmetry detection)
  Radovan Bast,             KTH Stockholm                 Sweden      (DALTON installation and execution frameworks)
  Linus Boman,              NTNU,                         Norway      (Cholesky decomposition and subsystems)
  Ove Christiansen,         Aarhus University,            Denmark     (CC module)
  Renzo Cimiraglia,         University of Ferrara,        Italy       (NEVPT2)
  Sonia Coriani,            University of Trieste,        Italy       (CC module, MCD in RESPONS)
  Paal Dahle,               University of Oslo,           Norway      (Parallelization)
  Erik K. Dalskov,          UNI-C,                        Denmark     (SOPPA)
  Thomas Enevoldsen,        Univ. of Southern Denmark,    Denmark     (SOPPA)
  Janus J. Eriksen,         Aarhus University,            Denmark     (PE-MP2/SOPPA, TDA)
  Berta Fernandez,          U. of Santiago de Compostela, Spain       (doublet spin, ESR in RESPONS)
  Lara Ferrighi,            Aarhus University,            Denmark     (PCM Cubic response)
  Heike Fliegl,             University of Oslo,           Norway      (CCSD(R12))
  Luca Frediani,            UiT The Arctic U. of Norway,  Norway      (PCM)
  Bin Gao,                  UiT The Arctic U. of Norway,  Norway      (Gen1Int library)
  Christof Haettig,         Ruhr-University Bochum,       Germany     (CC module)
  Kasper Hald,              Aarhus University,            Denmark     (CC module)
  Asger Halkier,            Aarhus University,            Denmark     (CC module)
  Hanne Heiberg,            University of Oslo,           Norway      (geometry analysis, selected one-electron integrals)
  Trygve Helgaker,          University of Oslo,           Norway      (DALTON; ABACUS, ERI, DFT modules, London, and much more)
  Alf Christian Hennum,     University of Oslo,           Norway      (Parity violation)
  Hinne Hettema,            University of Auckland,       New Zealand (quadratic response in RESPONS; SIRIUS supersymmetry)
  Eirik Hjertenaes,         NTNU,                         Norway      (Cholesky decomposition)
  Maria Francesca Iozzi,    University of Oslo,           Norway      (RPA)
  Brano Jansik              Technical Univ. of Ostrava    Czech Rep.  (DFT cubic response)
  Hans Joergen Aa. Jensen,  Univ. of Southern Denmark,    Denmark     (DALTON; SIRIUS, RESPONS, ABACUS modules, London, and much more)
  Dan Jonsson,              UiT The Arctic U. of Norway,  Norway      (cubic response in RESPONS module)
  Poul Joergensen,          Aarhus University,            Denmark     (RESPONS, ABACUS, and CC modules)
  Joanna Kauczor,           Linkoeping University,        Sweden      (Complex polarization propagator (CPP) module)
  Sheela Kirpekar,          Univ. of Southern Denmark,    Denmark     (Mass-velocity & Darwin integrals)
  Wim Klopper,              KIT Karlsruhe,                Germany     (R12 code in CC, SIRIUS, and ABACUS modules)
  Stefan Knecht,            ETH Zurich,                   Switzerland (Parallel CI and MCSCF)
  Rika Kobayashi,           Australian National Univ.,    Australia   (DIIS in CC, London in MCSCF)
  Henrik Koch,              NTNU,                         Norway      (CC module, Cholesky decomposition)
  Jacob Kongsted,           Univ. of Southern Denmark,    Denmark     (Polarizable embedding, QM/MM)
  Andrea Ligabue,           University of Modena,         Italy       (CTOCD, AOSOPPA)
  Ola B. Lutnaes,           University of Oslo,           Norway      (DFT Hessian)
  Juan I. Melo,             University of Buenos Aires,   Argentina   (LRESC, Relativistic Effects on NMR Shieldings)
  Kurt V. Mikkelsen,        University of Copenhagen,     Denmark     (MC-SCRF and QM/MM)
  Rolf H. Myhre,            NTNU,                         Norway      (Cholesky, subsystems and ECC2)
  Christian Neiss,          Univ. Erlangen-Nuernberg,     Germany     (CCSD(R12))
  Christian B. Nielsen,     University of Copenhagen,     Denmark     (QM/MM)
  Patrick Norman,           Linkoeping University,        Sweden      (Cubic response and complex response in RESPONS)
  Jeppe Olsen,              Aarhus University,            Denmark     (SIRIUS CI/density modules)
  Jogvan Magnus H. Olsen,   Univ. of Southern Denmark,    Denmark     (Polarizable embedding, PE library, QM/MM)
  Anders Osted,             Copenhagen University,        Denmark     (QM/MM)
  Martin J. Packer,         University of Sheffield,      UK          (SOPPA)
  Filip Pawlowski,          Kazimierz Wielki University   Poland      (CC3)
  Thomas B. Pedersen,       University of Oslo,           Norway      (Cholesky decomposition)
  Patricio F. Provasi,      University of Northeastern,   Argentina   (Analysis of coupling constants in localized orbitals)
  Zilvinas Rinkevicius,     KTH Stockholm,                Sweden      (open-shell DFT, ESR)
  Elias Rudberg,            KTH Stockholm,                Sweden      (DFT grid and basis info)
  Torgeir A. Ruden,         University of Oslo,           Norway      (Numerical derivatives in ABACUS)
  Kenneth Ruud,             UiT The Arctic U. of Norway,  Norway      (DALTON; ABACUS magnetic properties and  much more)
  Pawel Salek,              KTH Stockholm,                Sweden      (DALTON; DFT code)
  Claire C. M. Samson       University of Karlsruhe       Germany     (Boys localization, r12 integrals in ERI)
  Alfredo Sanchez de Meras, University of Valencia,       Spain       (CC module, Cholesky decomposition)
  Trond Saue,               Paul Sabatier University,     France      (direct Fock matrix construction)
  Stephan P. A. Sauer,      University of Copenhagen,     Denmark     (SOPPA(CCSD), SOPPA prop., AOSOPPA, vibrational g-factors)
  Bernd Schimmelpfennig,    Forschungszentrum Karlsruhe,  Germany     (AMFI module)
  Kristian Sneskov,         Aarhus University,            Denmark     (QM/MM, PE-CC)
  Arnfinn H. Steindal,      UiT The Arctic U. of Norway,  Norway      (parallel QM/MM)
  K. O. Sylvester-Hvid,     University of Copenhagen,     Denmark     (MC-SCRF)
  Peter R. Taylor,          VLSCI/Univ. of Melbourne,     Australia   (Symmetry handling ABACUS, integral transformation)
  Andrew M. Teale,          University of Nottingham,     England     (DFT-AC, DFT-D)
  David P. Tew,             University of Bristol,        England     (CCSD(R12))
  Olav Vahtras,             KTH Stockholm,                Sweden      (triplet response, spin-orbit, ESR, TDDFT, open-shell DFT)
  David J. Wilson,          La Trobe University,          Australia   (DFT Hessian and DFT magnetizabilities)
  Hans Agren,               KTH Stockholm,                Sweden      (SIRIUS module, RESPONS, MC-SCRF solvation model)
 --------------------------------------------------------------------------------

     Date and time (Linux)  : Mon Oct 21 15:28:34 2013
     Host name              : c10-6.local                             

 * Work memory size             :    64000000 =  488.28 megabytes.

 * Directories for basis set searches:
   1) /home/arnfinn/release_dalton/DALTON/test/2013-10-21T15_28-testjob-pid-55931
   2) /home/arnfinn/release_dalton/build-RB-intel12.1.2-release/basis


Compilation information
-----------------------

 Who compiled             | arnfinn
 Host                     | stallo-2.local
 System                   | Linux-2.6.32-358.6.2.el6.x86_64
 CMake generator          | Unix Makefiles
 Processor                | x86_64
 64-bit integers          | OFF
 MPI                      | OFF
 Fortran compiler         | /global/apps/intel/composer_xe_2011_sp1.8.273/bin/
                          | intel64/ifort
 C compiler               | /global/apps/intel/composer_xe_2011_sp1.8.273/bin/
                          | intel64/icc
 C compiler version       | icc (ICC) 13.0.1 20121010
 C++ compiler             | /global/apps/intel/composer_xe_2011_sp1.8.273/bin/
                          | intel64/icpc
 C++ compiler version     | icpc (ICC) 13.0.1 20121010
 BLAS                     | -Wl,--start-group;/global/apps/intel/2013.1/mkl/li
                          | b/intel64/libmkl_core.so;/global/apps/intel/2013.1
                          | /mkl/lib/intel64/libmkl_intel_lp64.so;/global/apps
                          | /intel/2013.1/mkl/lib/intel64/libmkl_sequential.so
                          | ;/usr/lib64/libpthread.so;/usr/lib64/libm.so;-open
                          | mp;-Wl,--end-group
 LAPACK                   | -Wl,--start-group;/global/apps/intel/2013.1/mkl/li
                          | b/intel64/libmkl_lapack95_lp64.a;/global/apps/inte
                          | l/2013.1/mkl/lib/intel64/libmkl_intel_lp64.so;-ope
                          | nmp;-Wl,--end-group
 Static linking           | OFF
 Last Git revision        | 9e5bb7f558e1ee66d0614a37cb4fb8c71086ba4e
 Configuration time       | 2013-10-15 12:56:50.249803


   Content of the .dal input file
 ----------------------------------

**DALTON INPUT                                    
.WALK                                             
*WALK                                             
.IMAGE                                            
**WAVE FUNCTION                                   
.HF                                               
*SCF INPUT                                        
.THRESH                                           
1.0d-6                                            
**PROPERTIES                                      
.VIBANA                                           
.POPANA                                           
**END OF DALTON INPUT                             


   Content of the .mol file
 ----------------------------

ATOMBASIS                                                                      
Location of saddle point (transition state) using IMAGE method                 
                                                                               
Atomtypes=2 Nosymmetry Cartesian                                               
Charge=7.0 Atoms=1      Basis=6-31G**                                          
N     0.0  0.0  0.0                                                            
Charge=1.0 Atoms=3      Basis=6-31G**                                          
H     1.7      0.0     0.0                                                     
H    -1.3841   0.9919  0.0                                                     
H    -1.3841  -0.9919  0.0                                                     


       *******************************************************************
       *********** Output from DALTON general input processing ***********
       *******************************************************************

 --------------------------------------------------------------------------------
   Overall default print level:    0
   Print level for DALTON.STAT:    1

    Geometry optimization
      Starting at iteration:    0
      Maximum number of iterations:   20
    "Old" integral transformation used (limited to max 255 basis functions)
 --------------------------------------------------------------------------------


                  .----------------------------------------------.
                  | Commencing geometry optimization using .WALK |
                  `----------------------------------------------'



     @@>>>>>>>>>> Geometry walk iteration number:    0 <<<<<<<<<<




   ****************************************************************************
   *************** Output of molecule and basis set information ***************
   ****************************************************************************


    The two title cards from your ".mol" input:
    ------------------------------------------------------------------------
 1: Location of saddle point (transition state) using IMAGE method          
 2:                                                                         
    ------------------------------------------------------------------------

  Atomic type no.    1
  --------------------
  Nuclear charge:   7.00000
  Number of symmetry independent centers:    1
  Number of basis sets to read;    2
  The basis set is "6-31G**" from the basis set library.
  Basis set file used for this atomic type with Z =   7 :
     "/home/arnfinn/release_dalton/build-RB-intel12.1.2-release/basis/6-31G**"

  Info about the basis set file: your basis has no documentation.
  Basis set: 6-31G**                                                                         

  Atomic type no.    2
  --------------------
  Nuclear charge:   1.00000
  Number of symmetry independent centers:    3
  Number of basis sets to read;    2
  The basis set is "6-31G**" from the basis set library.
  Basis set file used for this atomic type with Z =   1 :
     "/home/arnfinn/release_dalton/build-RB-intel12.1.2-release/basis/6-31G**"

  Info about the basis set file: your basis has no documentation.
  Basis set: 6-31G**                                                                         


                         SYMGRP: Point group information
                         -------------------------------

Point group: C1 


                                 Isotopic Masses
                                 ---------------

                           N          14.003074
                           H           1.007825
                           H           1.007825
                           H           1.007825

                       Total mass:    17.026549 amu
                       Natural abundance:  99.585 %

 Center-of-mass coordinates (a.u.):   -0.063228    0.000000    0.000000


  Atoms and basis sets
  --------------------

  Number of atom types :    2
  Total number of atoms:    4

  label    atoms   charge   prim   cont     basis
  ----------------------------------------------------------------------
  N           1    7.0000    28    15      [10s4p1d|3s2p1d]                                   
  H           3    1.0000     7     5      [4s1p|2s1p]                                        
  ----------------------------------------------------------------------
  total:      4   10.0000    49    30
  ----------------------------------------------------------------------
  Cartesian basis used.
  (Note that d, f, ... atomic GTOs are not all normalized.)

  Threshold for neglecting AO integrals:  1.00D-12


  Cartesian Coordinates (a.u.)
  ----------------------------

  Total number of coordinates:   12
  N       :     1  x   0.0000000000    2  y   0.0000000000    3  z   0.0000000000
  H       :     4  x   1.7000000000    5  y   0.0000000000    6  z   0.0000000000
  H       :     7  x  -1.3841000000    8  y   0.9919000000    9  z   0.0000000000
  H       :    10  x  -1.3841000000   11  y  -0.9919000000   12  z   0.0000000000


   Interatomic separations (in Angstrom):
   --------------------------------------

            N           H           H           H     
            ------      ------      ------      ------
 N     :    0.000000
 H     :    0.899601    0.000000
 H     :    0.901094    1.714366    0.000000
 H     :    0.901094    1.714366    1.049782    0.000000


  Max    interatomic separation is    1.7144 Angstrom (    3.2397 Bohr)
  between atoms    3 and    2, "H     " and "H     ".

  Min HX interatomic separation is    0.8996 Angstrom (    1.7000 Bohr)


  Bond distances (Angstrom):
  --------------------------

                  atom 1     atom 2       distance
                  ------     ------       --------
  bond distance:  H          N            0.899601
  bond distance:  H          N            0.901094
  bond distance:  H          N            0.901094


  Bond angles (degrees):
  ----------------------

                  atom 1     atom 2     atom 3         angle
                  ------     ------     ------         -----
  bond angle:     H          N          H            144.373
  bond angle:     H          N          H            144.373
  bond angle:     H          N          H             71.254




 Principal moments of inertia (u*A**2) and principal axes
 --------------------------------------------------------

   IA       0.555333          1.000000    0.000000    0.000000
   IB       1.877869          0.000000    1.000000    0.000000
   IC       2.433202          0.000000    0.000000    1.000000


 Rotational constants
 --------------------

 The molecule is planar.

               A                   B                   C

         910047.4305         269123.6649         207701.2409 MHz
           30.355915            8.976999            6.928168 cm-1


@  Nuclear repulsion energy :   13.460727047286 Hartree


                     .---------------------------------------.
                     | Starting in Integral Section (HERMIT) |
                     `---------------------------------------'



    *************************************************************************
    ****************** Output from HERMIT input processing ******************
    *************************************************************************



     ************************************************************************
     ************************** Output from HERINT **************************
     ************************************************************************


 Threshold for neglecting two-electron integrals:  1.00D-12
 Number of two-electron integrals written:       52269 ( 48.2% )
 Megabytes written:                              0.605

 >>>> Total CPU  time used in HERMIT:   0.04 seconds
 >>>> Total wall time used in HERMIT:   0.05 seconds


                        .----------------------------------.
                        | End of Integral Section (HERMIT) |
                        `----------------------------------'



                   .--------------------------------------------.
                   | Starting in Wave Function Section (SIRIUS) |
                   `--------------------------------------------'


 *** Output from Huckel module :

     Using EWMO model:          T
     Using EHT  model:          F
     Number of Huckel orbitals each symmetry:    8

 EWMO - Energy Weighted Maximum Overlap - is a Huckel type method,
        which normally is better than Extended Huckel Theory.
 Reference: Linderberg and Ohrn, Propagators in Quantum Chemistry (Wiley, 1973)

 Huckel EWMO eigenvalues for symmetry :  1
          -15.678199      -1.638645      -0.830784      -0.613795      -0.508700
           -0.174165      -0.118755      -0.093158

 **********************************************************************
 *SIRIUS* a direct, restricted step, second order MCSCF program       *
 **********************************************************************

 
     Date and time (Linux)  : Mon Oct 21 15:28:34 2013
     Host name              : c10-6.local                             

 Title lines from ".mol" input file:
     Location of saddle point (transition state) using IMAGE method          
                                                                             

 Print level on unit LUPRI =   2 is   0
 Print level on unit LUW4  =   2 is   5

@    Restricted, closed shell Hartree-Fock calculation.

 Initial molecular orbitals are obtained according to
 ".MOSTART EWMO  " input option

     Wave function specification
     ============================
@    For the wave function of type :      >>> HF <<<
@    Number of closed shell electrons          10
@    Number of electrons in active shells       0
@    Total charge of the molecule               0

@    Spin multiplicity and 2 M_S                1         0
     Total number of symmetries                 1
@    Reference state symmetry                   1

     Orbital specifications
     ======================
     Abelian symmetry species          All |    1
                                       --- |  ---
@    Occupied SCF orbitals               5 |    5
     Secondary orbitals                 25 |   25
     Total number of orbitals           30 |   30
     Number of basis functions          30 |   30

     Optimization information
     ========================
@    Number of configurations                 1
@    Number of orbital rotations            125
     ------------------------------------------
@    Total number of variables              126

     Maximum number of Fock   iterations      0
     Maximum number of DIIS   iterations     60
     Maximum number of QC-SCF iterations     60
     Threshold for SCF convergence     1.00D-06


 >>>>> DIIS optimization of Hartree-Fock <<<<<

 C1-DIIS algorithm; max error vectors =    5

 Iter      Total energy        Error norm    Delta(E)  DIIS dim.
 -----------------------------------------------------------------------------
     (Precalculated two-electron integrals are transformed to P-supermatrix elements.
      Threshold for discarding integrals :  1.00D-12 )
@  1    -55.8295064311        1.82245D+00   -5.58D+01    1
      Virial theorem: -V/T =      2.002341
@      MULPOP N      -0.49; H       0.12; H       0.19; H       0.19; 
 -----------------------------------------------------------------------------
@  2    -56.0623781888        4.66187D-01   -2.33D-01    2
      Virial theorem: -V/T =      1.983736
@      MULPOP N      -0.74; H       0.27; H       0.24; H       0.24; 
 -----------------------------------------------------------------------------
@  3    -56.0774635579        2.00400D-01   -1.51D-02    3
      Virial theorem: -V/T =      1.994190
@      MULPOP N      -0.73; H       0.27; H       0.23; H       0.23; 
 -----------------------------------------------------------------------------
@  4    -56.0797803274        3.96799D-02   -2.32D-03    4
      Virial theorem: -V/T =      1.990112
@      MULPOP N      -0.80; H       0.30; H       0.25; H       0.25; 
 -----------------------------------------------------------------------------
@  5    -56.0799839596        8.74580D-03   -2.04D-04    5
      Virial theorem: -V/T =      1.990281
@      MULPOP N      -0.81; H       0.31; H       0.25; H       0.25; 
 -----------------------------------------------------------------------------
@  6    -56.0799902220        9.07886D-04   -6.26D-06    5
      Virial theorem: -V/T =      1.990186
@      MULPOP N      -0.82; H       0.31; H       0.25; H       0.25; 
 -----------------------------------------------------------------------------
@  7    -56.0799902951        1.12356D-04   -7.31D-08    5
      Virial theorem: -V/T =      1.990199
@      MULPOP N      -0.82; H       0.31; H       0.25; H       0.25; 
 -----------------------------------------------------------------------------
@  8    -56.0799902961        1.63136D-05   -1.03D-09    5
      Virial theorem: -V/T =      1.990201
@      MULPOP N      -0.82; H       0.31; H       0.25; H       0.25; 
 -----------------------------------------------------------------------------
@  9    -56.0799902962        3.38585D-06   -2.53D-11    5
      Virial theorem: -V/T =      1.990201
@      MULPOP N      -0.82; H       0.31; H       0.25; H       0.25; 
 -----------------------------------------------------------------------------
@ 10    -56.0799902962        7.94209D-07   -1.05D-12    5

@ *** DIIS converged in  10 iterations !
@     Converged SCF energy, gradient:    -56.079990296162    7.94D-07
    - total time used in SIRFCK :              0.00 seconds


 *** SCF orbital energy analysis ***

 Only the five lowest virtual orbital energies printed in each symmetry.

 Number of electrons :   10
 Orbital occupations :    5

 Sym       Hartree-Fock orbital energies

  1    -15.49138795    -1.19439661    -0.78806337    -0.55241271    -0.38990490
         0.23727046     0.31678842     0.35519720     0.84832940     0.87490029

    E(LUMO) :     0.23727046 au (symmetry 1)
  - E(HOMO) :    -0.38990490 au (symmetry 1)
  ------------------------------------------
    gap     :     0.62717536 au

 >>> Writing SIRIFC interface file <<<

 >>>> CPU and wall time for SCF :       0.043       0.062


                       .-----------------------------------.
                       | >>> Final results from SIRIUS <<< |
                       `-----------------------------------'


@    Spin multiplicity:           1
@    Spatial symmetry:            1
@    Total charge of molecule:    0

@    Final HF energy:             -56.079990296162                 
@    Nuclear repulsion:            13.460727047286
@    Electronic energy:           -69.540717343448

@    Final gradient norm:           0.000000794209

 
     Date and time (Linux)  : Mon Oct 21 15:28:34 2013
     Host name              : c10-6.local                             


 INFO: Sorry, plot of MOs with Molden is only implemented for spherical GTOs

 (Only coefficients >0.0100 are printed.)

 Molecular orbitals for symmetry species  1
 ------------------------------------------

    Orbital         1        2        3        4        5        6        7
   1 N   :s     -0.9947   0.2012  -0.0454   0.0000  -0.0000   0.1274   0.0336
   2 N   :s     -0.0261  -0.3933   0.0904   0.0000   0.0000  -0.1103  -0.0541
   3 N   :s      0.0001  -0.3637   0.1387  -0.0000   0.0000  -2.2039  -0.4001
   4 N   :px     0.0008   0.0792   0.4595   0.0000  -0.0000   0.0744  -0.2497
   5 N   :py    -0.0000  -0.0000   0.0000  -0.5051  -0.0000   0.0000  -0.0000
   6 N   :pz     0.0000  -0.0000   0.0000  -0.0000   0.5875   0.0000   0.0000
   7 N   :px    -0.0001   0.0117   0.1811   0.0000  -0.0000   0.4345  -1.5196
   8 N   :py    -0.0000   0.0000  -0.0000  -0.2981  -0.0000   0.0000  -0.0000
   9 N   :pz     0.0000  -0.0000   0.0000  -0.0000   0.5348   0.0000   0.0000
  10 N   :dxx    0.0014  -0.0076  -0.0018   0.0000  -0.0000   0.0121   0.0139
  11 N   :dxy    0.0000  -0.0000  -0.0000   0.0298   0.0000  -0.0000   0.0000
  13 N   :dyy    0.0023   0.0030  -0.0049   0.0000  -0.0000   0.0219   0.0094
  15 N   :dzz    0.0023   0.0064   0.0010   0.0000  -0.0000   0.0315  -0.0027
  16 H   :s      0.0006  -0.1251   0.3036   0.0000  -0.0000   0.0501   0.0149
  17 H   :s     -0.0003  -0.0020   0.1033   0.0000  -0.0000   0.7173   2.3507
  18 H   :px    -0.0004   0.0168  -0.0231  -0.0000  -0.0000  -0.0038  -0.0073
  19 H   :py    -0.0000   0.0000   0.0000  -0.0165  -0.0000   0.0000  -0.0000
  20 H   :pz    -0.0000   0.0000  -0.0000   0.0000   0.0239  -0.0000  -0.0000
  21 H   :s      0.0005  -0.1877  -0.1610  -0.2311  -0.0000   0.0253   0.0117
  22 H   :s     -0.0003  -0.0213  -0.0566  -0.1993  -0.0000   1.1405  -0.9193
  23 H   :px     0.0003  -0.0143   0.0024  -0.0163   0.0000  -0.0019  -0.0113
  24 H   :py    -0.0004   0.0147   0.0138  -0.0011   0.0000  -0.0062   0.0037
  25 H   :pz    -0.0000   0.0000  -0.0000   0.0000   0.0245  -0.0000  -0.0000
  26 H   :s      0.0005  -0.1877  -0.1610   0.2311   0.0000   0.0253   0.0117
  27 H   :s     -0.0003  -0.0213  -0.0566   0.1993   0.0000   1.1405  -0.9193
  28 H   :px     0.0003  -0.0143   0.0024   0.0163  -0.0000  -0.0019  -0.0113
  29 H   :py     0.0004  -0.0147  -0.0138  -0.0011   0.0000   0.0062  -0.0037
  30 H   :pz    -0.0000   0.0000  -0.0000   0.0000   0.0245  -0.0000  -0.0000



 >>>> Total CPU  time used in SIRIUS :      0.05 seconds
 >>>> Total wall time used in SIRIUS :      0.08 seconds

 
     Date and time (Linux)  : Mon Oct 21 15:28:34 2013
     Host name              : c10-6.local                             

 NOTE:    1 informational messages have been issued.
 Check output, result, and error files for "INFO".


                     .---------------------------------------.
                     | End of Wave Function Section (SIRIUS) |
                     `---------------------------------------'



 Changes of defaults for WALK:
 -----------------------------


 Walk type: Level-shifted Newton walk (mode following)
 Minimization of image surface 
 Initial image mode: 1

 Index of critical point searched: 0

 Tolerance for stationary point :
 Molecular gradient norm less than  0.00010000

 Hessian mode selection :         1

 Restricted step control parameters
 ----------------------------------
 Initial trust radius   :    0.5000
 Trust radius increment :    1.2000
 Trust radius decrement :    0.7000
 Bad prediction ratio   :    0.4000
 Good prediction ratio  :    0.8000
 Rejection ratio, low   :    0.1000
 Rejection ratio, high  :    1.9000

 No scaling in this run.




 Center of mass dipole origin  :   -0.063228    0.000000    0.000000

 Center of mass gauge origin   :   -0.063228    0.000000    0.000000


 Changes of defaults for WALK:
 -----------------------------


 Walk type: Level-shifted Newton walk (mode following)
 Minimization of image surface 
 Initial image mode: 1

 Index of critical point searched: 0

 Tolerance for stationary point :
 Molecular gradient norm less than  0.00010000

 Hessian mode selection :         1

 Restricted step control parameters
 ----------------------------------
 Initial trust radius   :    0.5000
 Trust radius increment :    1.2000
 Trust radius decrement :    0.7000
 Bad prediction ratio   :    0.4000
 Good prediction ratio  :    0.8000
 Rejection ratio, low   :    0.1000
 Rejection ratio, high  :    1.9000

 No scaling in this run.





                 .------------------------------------------------.
                 | Starting in Static Property Section (ABACUS) - |
                 `------------------------------------------------'


 
     Date and time (Linux)  : Mon Oct 21 15:28:34 2013
     Host name              : c10-6.local                             


   ***************************************************************************
   ************************ FINAL RESULTS from ABACUS ************************
   ***************************************************************************


 
     Date and time (Linux)  : Mon Oct 21 15:28:34 2013
     Host name              : c10-6.local                             


                             Molecular geometry (au)
                             -----------------------

 N          0.0000000000            0.0000000000            0.0000000000
 H          1.7000000000            0.0000000000            0.0000000000
 H         -1.3841000000            0.9919000000            0.0000000000
 H         -1.3841000000           -0.9919000000            0.0000000000





                        Molecular wave function and energy
                        ----------------------------------

     Spin multiplicity  1     State number       1     Total charge       0

     Total energy        -56.0799902962 au (Hartrees)
                         -1526.01416244 eV
                           -147237.9918 kJ/mol


                             Relativistic corrections
                             ------------------------

     Darwin correction:                          0.1119225539 au
     Mass-velocity correction:                  -0.1403793979 au

     Total relativistic correction:             -0.0284568439 au (0.0507%)
     Non-relativistic + relativistic energy:   -56.1084471401 au




                             Molecular gradient (au)
                             -----------------------

 N          0.0179559641           -0.0000000000           -0.0000000000
 H         -0.1096919716            0.0000000000            0.0000000000
 H          0.0458680037           -0.1795322130            0.0000000000
 H          0.0458680037            0.1795322130           -0.0000000000





                              Molecular Hessian (au)
                              ----------------------

           N    x      N    y      N    z      H    x      H    y      H    z

 N    x    2.144847
 N    y   -0.000000    0.627430
 N    z    0.000000   -0.000000   -0.321138

 H    x   -0.989143    0.000000    0.000000    0.977107
 H    y    0.000000    0.017196    0.000000   -0.000000   -0.029536
 H    z    0.000000    0.000000    0.149944   -0.000000   -0.000000   -0.102860

 H    x   -0.577852    0.455441    0.000000    0.006018    0.021374   -0.000000
 H    y    0.453044   -0.322313    0.000000   -0.012066    0.006170   -0.000000
 H    z   -0.000000    0.000000    0.085597    0.000000   -0.000000   -0.023542

 H    x   -0.577852   -0.455441   -0.000000    0.006018   -0.021374    0.000000
 H    y   -0.453044   -0.322313   -0.000000    0.012066    0.006170    0.000000
 H    z   -0.000000   -0.000000    0.085597    0.000000    0.000000   -0.023542


           H    x      H    y      H    z      H    x      H    y      H    z

 H    x    0.546409
 H    y   -0.458897    0.425909
 H    z    0.000000   -0.000000   -0.121526

 H    x    0.025425    0.017919    0.000000    0.546409
 H    y   -0.017919   -0.109766    0.000000    0.458897    0.425909
 H    z    0.000000    0.000000    0.059472    0.000000    0.000000   -0.121526





                                  Dipole moment
                                  -------------

                 au               Debye          C m (/(10**-30)
              0.222937           0.566648           1.890136


                             Dipole moment components
                             ------------------------

                 au               Debye          C m (/(10**-30)

      x     -0.22293667        -0.56664845        -1.89013578
      y      0.00000000         0.00000000         0.00000000
      z     -0.00000000        -0.00000000        -0.00000000


   Units:   1 a.u. =   2.54175 Debye 
            1 a.u. =   8.47835 (10**-30) C m (SI)




   Interatomic separations (in Angstrom):
   --------------------------------------

            N           H           H           H     
            ------      ------      ------      ------
 N     :    0.000000
 H     :    0.899601    0.000000
 H     :    0.901094    1.714366    0.000000
 H     :    0.901094    1.714366    1.049782    0.000000


  Max    interatomic separation is    1.7144 Angstrom (    3.2397 Bohr)
  between atoms    3 and    2, "H     " and "H     ".

  Min HX interatomic separation is    0.8996 Angstrom (    1.7000 Bohr)


  Bond distances (Angstrom):
  --------------------------

                  atom 1     atom 2       distance
                  ------     ------       --------
  bond distance:  H          N            0.899601
  bond distance:  H          N            0.901094
  bond distance:  H          N            0.901094


  Bond angles (degrees):
  ----------------------

                  atom 1     atom 2     atom 3         angle
                  ------     ------     ------         -----
  bond angle:     H          N          H            144.373
  bond angle:     H          N          H            144.373
  bond angle:     H          N          H             71.254



 Largest deviation from orthonormality of OMOs:0.828226E-13
 - found for element   30  30


   ***************************************************************************
   ************************* FINAL RESULTS FROM WALK *************************
   ***************************************************************************


 Walk type: TS by minimization on image surface       

 Iteration number:  0

  Norm of molecular gradient:     0.2846508806

@ Energy at current point:   -56.0799902962

@ Hessian index: 2
@ Image index:   1
  Initial index: 2
  Target index:  1

@ Image mode: 1



   sym        #int        #ext       gradient     index       cond. num.
   ---------------------------------------------------------------------
    1           6           6       2.846509D-01    2          6.06D+01



                      +-------------------------------------+
                      ! Analysis in diagonal representation !
                      +-------------------------------------+


@  iter   sym     mode      gradient     eigenvalue       step        energy 
@  ----------------------------------------------------------------------------
@    0     1       1<    -0.00000000   -0.43735160   -0.00000000    0.00000000 
@    0     1       2      0.00000000   -0.05146014    0.00000000    0.00000000 
@    0     1       3      0.16083533    0.14482455   -0.45880355<  -0.05854899<
@    0     1       4     -0.23300692<   0.96783181    0.19854691   -0.02718642 
@    0     1       5     -0.00000000    1.56615989    0.00000000   -0.00000000 
@    0     1       6     -0.02942606    3.11680621<   0.00885651   -0.00013837 


                              +----------------------+
                              ! Hessian eigenvectors !
                              +----------------------+


   sym 1            1           2           3           4           5
  ----------------------------------------------------------------------

   N    x       0.000000   -0.000000    0.254625   -0.005837    0.000000
   N    y       0.000000   -0.575479   -0.000000   -0.000000    0.640576
   N    z       0.859604    0.000000   -0.000000    0.000000   -0.000000

   H    x      -0.000000    0.000000    0.289351    0.719238    0.000000
   H    y      -0.000000    0.538114    0.000000   -0.000000   -0.004423
   H    z      -0.385778   -0.000000    0.000000   -0.000000    0.000000

   H    x      -0.000000    0.435063   -0.271988   -0.356700    0.440055
   H    y      -0.000000    0.018682   -0.593080    0.337781   -0.318077
   H    z      -0.236913   -0.000000    0.000000   -0.000000    0.000000

   H    x       0.000000   -0.435063   -0.271988   -0.356700   -0.440055
   H    y       0.000000    0.018682    0.593080   -0.337781   -0.318077
   H    z      -0.236913   -0.000000    0.000000   -0.000000    0.000000


   sym 1            6
  ----------------------
   N    x       0.827727
   N    y      -0.000000
   N    z       0.000000

   H    x      -0.385970
   H    y       0.000000
   H    z      -0.000000

   H    x      -0.220879
   H    y       0.184825
   H    z      -0.000000

   H    x      -0.220879
   H    y      -0.184825
   H    z      -0.000000



 Input trust radius:            0.500000
 Updated trust radius:          0.500000
 Level shift employed:          0.2057292585


 Predicted energy change   -0.0858737785


                               +--------------------+
                               ! Change in geometry !
                               +--------------------+



                           Cartesian displacements (au)
                           ----------------------------

 N         -0.1106508592            0.0000000000           -0.0000000000
 H          0.0066288240           -0.0000000000            0.0000000000
 H          0.0520110176            0.3408094540            0.0000000000
 H          0.0520110176           -0.3408094540            0.0000000000





   Differential interatomic separations (in Angstrom):
   ---------------------------------------------------

            N           H           H           H     
            ------      ------      ------      ------
 N     :    0.000000
 H     :    0.062062    0.000000
 H     :    0.055536    0.041508    0.000000
 H     :    0.055536    0.041508    0.360697    0.000000


  Max differential change in interatomic separation is    0.360697 Angstrom
  between atoms    4 and    3, "H     " and "H     ".




                              +---------------------+
                              ! Geometry after step !
                              +---------------------+



                            Cartesian coordinates (au)
                            --------------------------

 N         -0.1106508592            0.0000000000           -0.0000000000
 H          1.7066288240           -0.0000000000            0.0000000000
 H         -1.3320889824            1.3327094540            0.0000000000
 H         -1.3320889824           -1.3327094540            0.0000000000





   Interatomic separations (in Angstrom):
   --------------------------------------

            N           H           H           H     
            ------      ------      ------      ------
 N     :    0.000000
 H     :    0.961663    0.000000
 H     :    0.956630    1.755873    0.000000
 H     :    0.956630    1.755873    1.410479    0.000000


  Max    interatomic separation is    1.7559 Angstrom (    3.3181 Bohr)
  between atoms    4 and    2, "H     " and "H     ".

  Min HX interatomic separation is    0.9566 Angstrom (    1.8078 Bohr)


  Bond distances (Angstrom):
  --------------------------

                  atom 1     atom 2       distance
                  ------     ------       --------
  bond distance:  H          N            0.961663
  bond distance:  H          N            0.956630
  bond distance:  H          N            0.956630


  Bond angles (degrees):
  ----------------------

                  atom 1     atom 2     atom 3         angle
                  ------     ------     ------         -----
  bond angle:     H          N          H            132.505
  bond angle:     H          N          H            132.505
  bond angle:     H          N          H             94.989




 CPU time statistics for ABACUS
 ------------------------------




 >>>> Total CPU  time used in ABACUS:   0.27 seconds
 >>>> Total wall time used in ABACUS:   0.32 seconds


                   .-------------------------------------------.
                   | End of Static Property Section (ABACUS) - |
                   `-------------------------------------------'


@  Geometry walk step no.   0:  Molecular energy =    -56.079990   Molecular gradient =  0.284651


     @@>>>>>>>>>> Geometry walk iteration number:    1 <<<<<<<<<<




 **************************************************************************************
 ****************** Output of molecule and basis set info suppressed ******************
 **************************************************************************************



                     .---------------------------------------.
                     | Starting in Integral Section (HERMIT) |
                     `---------------------------------------'



     ************************************************************************
     ************************** Output from HERINT **************************
     ************************************************************************


 Threshold for neglecting two-electron integrals:  1.00D-12
 Number of two-electron integrals written:       52269 ( 48.2% )
 Megabytes written:                              0.605

 >>>> Total CPU  time used in HERMIT:   0.03 seconds
 >>>> Total wall time used in HERMIT:   0.04 seconds


                        .----------------------------------.
                        | End of Integral Section (HERMIT) |
                        `----------------------------------'



                   .--------------------------------------------.
                   | Starting in Wave Function Section (SIRIUS) |
                   `--------------------------------------------'


 **********************************************************************
 *SIRIUS* a direct, restricted step, second order MCSCF program       *
 **********************************************************************

 (Wave function specification suppressed here, see output above for initial geometry.)


 >>>>> DIIS optimization of Hartree-Fock <<<<<

 C1-DIIS algorithm; max error vectors =    5

 Iter      Total energy        Error norm    Delta(E)  DIIS dim.
 -----------------------------------------------------------------------------
     (Precalculated two-electron integrals are transformed to P-supermatrix elements.
      Threshold for discarding integrals :  1.00D-12 )
@  1    -55.0590277575        7.18430D+00    1.02D+00    1
      Virial theorem: -V/T =      1.959562
@      MULPOP N      -0.51; H       0.10; H       0.21; H       0.21; 
 -----------------------------------------------------------------------------
@  2    -56.1534905778        5.51561D-01   -1.09D+00    2
      Virial theorem: -V/T =      1.998455
@      MULPOP N      -0.89; H       0.29; H       0.30; H       0.30; 
 -----------------------------------------------------------------------------
@  3    -56.1650544329        4.81081D-02   -1.16D-02    3
      Virial theorem: -V/T =      1.998792
@      MULPOP N      -0.87; H       0.31; H       0.28; H       0.28; 
 -----------------------------------------------------------------------------
@  4    -56.1653070988        1.18439D-02   -2.53D-04    4
      Virial theorem: -V/T =      1.998377
@      MULPOP N      -0.86; H       0.31; H       0.27; H       0.27; 
 -----------------------------------------------------------------------------
@  5    -56.1653270604        4.79424D-03   -2.00D-05    5
      Virial theorem: -V/T =      1.998513
@      MULPOP N      -0.85; H       0.31; H       0.27; H       0.27; 
 -----------------------------------------------------------------------------
@  6    -56.1653288283        6.85712D-04   -1.77D-06    5
      Virial theorem: -V/T =      1.998407
@      MULPOP N      -0.85; H       0.31; H       0.27; H       0.27; 
 -----------------------------------------------------------------------------
@  7    -56.1653288785        1.27268D-04   -5.02D-08    5
      Virial theorem: -V/T =      1.998412
@      MULPOP N      -0.85; H       0.31; H       0.27; H       0.27; 
 -----------------------------------------------------------------------------
@  8    -56.1653288804        2.13025D-05   -1.96D-09    5
      Virial theorem: -V/T =      1.998412
@      MULPOP N      -0.85; H       0.31; H       0.27; H       0.27; 
 -----------------------------------------------------------------------------
@  9    -56.1653288805        3.83373D-06   -5.38D-11    5
      Virial theorem: -V/T =      1.998412
@      MULPOP N      -0.85; H       0.31; H       0.27; H       0.27; 
 -----------------------------------------------------------------------------
@ 10    -56.1653288805        7.17915D-07   -1.45D-12    5

@ *** DIIS converged in  10 iterations !
@     Converged SCF energy, gradient:    -56.165328880479    7.18D-07
    - total time used in SIRFCK :              0.00 seconds


 *** SCF orbital energy analysis ***

 Only the five lowest virtual orbital energies printed in each symmetry.

 Number of electrons :   10
 Orbital occupations :    5

 Sym       Hartree-Fock orbital energies

  1    -15.50693085    -1.13855220    -0.70427621    -0.60130960    -0.38290703
         0.23592087     0.32587719     0.34018123     0.85494508     0.93789705

    E(LUMO) :     0.23592087 au (symmetry 1)
  - E(HOMO) :    -0.38290703 au (symmetry 1)
  ------------------------------------------
    gap     :     0.61882790 au

 >>> Writing SIRIFC interface file <<<


 Check ratio for geometry walk with converged SCF :



 >>> step control for geometry walk (ABACUS interface)


 (SIRSTP) Energy difference;
 actual, predicted and ratio:  -0.0853385843  -0.0858737785    0.993768


 *** GEOMETRY WALK STEP ACCEPTED.


 >>>> CPU and wall time for SCF :       0.043       0.063


                       .-----------------------------------.
                       | >>> Final results from SIRIUS <<< |
                       `-----------------------------------'


@    Spin multiplicity:           1
@    Spatial symmetry:            1
@    Total charge of molecule:    0

@    Final HF energy:             -56.165328880479                 
@    Nuclear repulsion:            12.574193781159
@    Electronic energy:           -68.739522661637

@    Final gradient norm:           0.000000717915

 
     Date and time (Linux)  : Mon Oct 21 15:28:34 2013
     Host name              : c10-6.local                             



 >>>> Total CPU  time used in SIRIUS :      0.05 seconds
 >>>> Total wall time used in SIRIUS :      0.07 seconds

 
     Date and time (Linux)  : Mon Oct 21 15:28:34 2013
     Host name              : c10-6.local                             

 NOTE:    1 informational messages have been issued.
 Check output, result, and error files for "INFO".


                     .---------------------------------------.
                     | End of Wave Function Section (SIRIUS) |
                     `---------------------------------------'


 Center of mass dipole origin  :   -0.147681    0.000000   -0.000000

 Center of mass gauge origin   :   -0.147681    0.000000   -0.000000


                 .------------------------------------------------.
                 | Starting in Static Property Section (ABACUS) - |
                 `------------------------------------------------'


 
     Date and time (Linux)  : Mon Oct 21 15:28:34 2013
     Host name              : c10-6.local                             

 Old LUGDR file opened in ORTREL.


   ***************************************************************************
   ************************ FINAL RESULTS from ABACUS ************************
   ***************************************************************************


 
     Date and time (Linux)  : Mon Oct 21 15:28:35 2013
     Host name              : c10-6.local                             


                             Molecular geometry (au)
                             -----------------------

 N         -0.1106508592            0.0000000000           -0.0000000000
 H          1.7066288240           -0.0000000000            0.0000000000
 H         -1.3320889824            1.3327094540            0.0000000000
 H         -1.3320889824           -1.3327094540            0.0000000000





                        Molecular wave function and energy
                        ----------------------------------

     Spin multiplicity  1     State number       1     Total charge       0

     Total energy        -56.1653288805 au (Hartrees)
                         -1528.33634345 eV
                           -147462.0482 kJ/mol


                             Relativistic corrections
                             ------------------------

     Darwin correction:                          0.1118668176 au
     Mass-velocity correction:                  -0.1402463881 au

     Total relativistic correction:             -0.0283795705 au (0.0505%)
     Non-relativistic + relativistic energy:   -56.1937084509 au




                             Molecular gradient (au)
                             -----------------------

 N          0.0370719135            0.0000000000           -0.0000000000
 H         -0.0213431394           -0.0000000000            0.0000000000
 H         -0.0078643870           -0.0647289667            0.0000000000
 H         -0.0078643870            0.0647289667            0.0000000000





                              Molecular Hessian (au)
                              ----------------------

           N    x      N    y      N    z      H    x      H    y      H    z

 N    x    1.313660
 N    y    0.000000    0.847258
 N    z   -0.000000   -0.000000   -0.136707

 H    x   -0.667319   -0.000000    0.000000    0.668370
 H    y   -0.000000   -0.062742    0.000000    0.000000    0.041362
 H    z    0.000000    0.000000    0.067150   -0.000000   -0.000000   -0.034015

 H    x   -0.323171    0.302821    0.000000   -0.000525    0.026411   -0.000000
 H    y    0.292033   -0.392258    0.000000   -0.010701    0.010690   -0.000000
 H    z    0.000000    0.000000    0.034778   -0.000000   -0.000000   -0.016567

 H    x   -0.323171   -0.302821   -0.000000   -0.000525   -0.026411    0.000000
 H    y   -0.292033   -0.392258   -0.000000    0.010701    0.010690    0.000000
 H    z    0.000000    0.000000    0.034778   -0.000000   -0.000000   -0.016567


           H    x      H    y      H    z      H    x      H    y      H    z

 H    x    0.306442
 H    y   -0.305282    0.431861
 H    z   -0.000000   -0.000000   -0.033390

 H    x    0.017254    0.023949    0.000000    0.306442
 H    y   -0.023949   -0.050293    0.000000    0.305282    0.431861
 H    z   -0.000000   -0.000000    0.015179    0.000000    0.000000   -0.033390





                                  Dipole moment
                                  -------------

                 au               Debye          C m (/(10**-30)
              0.103650           0.263451           0.878778


                             Dipole moment components
                             ------------------------

                 au               Debye          C m (/(10**-30)

      x     -0.10364959        -0.26345095        -0.87877779
      y     -0.00000000        -0.00000000        -0.00000000
      z      0.00000000         0.00000000         0.00000000


   Units:   1 a.u. =   2.54175 Debye 
            1 a.u. =   8.47835 (10**-30) C m (SI)




   Interatomic separations (in Angstrom):
   --------------------------------------

            N           H           H           H     
            ------      ------      ------      ------
 N     :    0.000000
 H     :    0.961663    0.000000
 H     :    0.956630    1.755873    0.000000
 H     :    0.956630    1.755873    1.410479    0.000000


  Max    interatomic separation is    1.7559 Angstrom (    3.3181 Bohr)
  between atoms    4 and    2, "H     " and "H     ".

  Min HX interatomic separation is    0.9566 Angstrom (    1.8078 Bohr)


  Bond distances (Angstrom):
  --------------------------

                  atom 1     atom 2       distance
                  ------     ------       --------
  bond distance:  H          N            0.961663
  bond distance:  H          N            0.956630
  bond distance:  H          N            0.956630


  Bond angles (degrees):
  ----------------------

                  atom 1     atom 2     atom 3         angle
                  ------     ------     ------         -----
  bond angle:     H          N          H            132.505
  bond angle:     H          N          H            132.505
  bond angle:     H          N          H             94.989



 Overlap between normal coordinate  1 and the normal coordinate walk 
 direction of the previous iteration is equal to 0.99879

 Largest deviation from orthonormality of OMOs:0.957012E-13
 - found for element    2   2


   ***************************************************************************
   ************************* FINAL RESULTS FROM WALK *************************
   ***************************************************************************


 Walk type: TS by minimization on image surface       

 Iteration number:  1

  Norm of molecular gradient:     0.1016525051

@ Energy at current point:   -56.1653288805
  Energy at initial point:   -56.0799902962

  Change in energy since start of walk:-0.0853385843 au
                                             -224.06 kJ/mol
                                              -53.55 kCal/mol

@ Ratio between actual and predicted energies:  0.99

@ Hessian index: 1
@ Image index:   0
  Initial index: 2
  Target index:  1

@ Image mode: 1

@ Angle between gradient and walk mode: 90.00 deg 
@ Angle between old and new walk modes:  2.82 deg 
@ Angle between old and new steps:      20.53 deg 


   sym        #int        #ext       gradient     index       cond. num.
   ---------------------------------------------------------------------
    1           6           6       1.016525D-01    1          1.71D+01



                      +-------------------------------------+
                      ! Analysis in diagonal representation !
                      +-------------------------------------+


@  iter   sym     mode      gradient     eigenvalue       step        energy 
@  ----------------------------------------------------------------------------
@    1     1       1<     0.00000001   -0.18576947    0.00000005    0.00000000 
@    1     1       2      0.00000004    0.11484599   -0.00000032   -0.00000000 
@    1     1       3     -0.07745697<   0.15593771    0.49671736<  -0.01923711<
@    1     1       4      0.06378854    0.67173912   -0.09496029   -0.00302869 
@    1     1       5      0.00000000    1.46425085   -0.00000000   -0.00000000 
@    1     1       6      0.01626874    1.96020386<  -0.00829951   -0.00006751 

  This is Newton step.


                              +----------------------+
                              ! Hessian eigenvectors !
                              +----------------------+


   sym 1            1           2           3           4           5
  ----------------------------------------------------------------------

   N    x       0.000000    0.000000   -0.294187    0.016247   -0.000000
   N    y       0.000000   -0.429128   -0.000000   -0.000000    0.750559
   N    z       0.863740    0.000000    0.000000   -0.000000   -0.000000

   H    x      -0.000000    0.000000   -0.360148   -0.663813   -0.000000
   H    y      -0.000000    0.590482    0.000000   -0.000000   -0.037702
   H    z      -0.347188   -0.000000   -0.000000    0.000000    0.000000

   H    x      -0.000000    0.476531    0.327168    0.323783    0.300964
   H    y      -0.000000   -0.080677    0.533699   -0.417982   -0.356428
   H    z      -0.258276   -0.000000   -0.000000    0.000000    0.000000

   H    x       0.000000   -0.476531    0.327167    0.323783   -0.300964
   H    y       0.000000   -0.080677   -0.533699    0.417982   -0.356428
   H    z      -0.258276   -0.000000   -0.000000    0.000000    0.000000


   sym 1            6
  ----------------------
   N    x       0.814365
   N    y       0.000000
   N    z      -0.000000

   H    x      -0.423847
   H    y      -0.000000
   H    z       0.000000

   H    x      -0.195259
   H    y       0.201137
   H    z       0.000000

   H    x      -0.195259
   H    y      -0.201137
   H    z       0.000000



 Old trust radius:              0.500000
 Updated trust radius:          0.600000
 Level shift employed:          0.0000000000


 Predicted energy change   -0.0223333111


                               +--------------------+
                               ! Change in geometry !
                               +--------------------+



                           Cartesian displacements (au)
                           ----------------------------

 N         -0.1544296254            0.0000000512            0.0000000760
 H         -0.1123381018           -0.0000000628           -0.0000000305
 H          0.1333838154            0.3031201205           -0.0000000227
 H          0.1333839118           -0.3031201089           -0.0000000227





   Differential interatomic separations (in Angstrom):
   ---------------------------------------------------

            N           H           H           H     
            ------      ------      ------      ------
 N     :    0.000000
 H     :    0.022274    0.000000
 H     :    0.040079   -0.043042    0.000000
 H     :    0.040079   -0.043042    0.320809    0.000000


  Max differential change in interatomic separation is    0.320809 Angstrom
  between atoms    4 and    3, "H     " and "H     ".




                              +---------------------+
                              ! Geometry after step !
                              +---------------------+



                            Cartesian coordinates (au)
                            --------------------------

 N         -0.2650804846            0.0000000512            0.0000000760
 H          1.5942907222           -0.0000000628           -0.0000000305
 H         -1.1987051670            1.6358295745           -0.0000000227
 H         -1.1987050707           -1.6358295629           -0.0000000227





   Interatomic separations (in Angstrom):
   --------------------------------------

            N           H           H           H     
            ------      ------      ------      ------
 N     :    0.000000
 H     :    0.983937    0.000000
 H     :    0.996708    1.712832    0.000000
 H     :    0.996708    1.712832    1.731287    0.000000


  Max    interatomic separation is    1.7313 Angstrom (    3.2717 Bohr)
  between atoms    4 and    3, "H     " and "H     ".

  Min HX interatomic separation is    0.9839 Angstrom (    1.8594 Bohr)


  Bond distances (Angstrom):
  --------------------------

                  atom 1     atom 2       distance
                  ------     ------       --------
  bond distance:  H          N            0.983937
  bond distance:  H          N            0.996708
  bond distance:  H          N            0.996708


  Bond angles (degrees):
  ----------------------

                  atom 1     atom 2     atom 3         angle
                  ------     ------     ------         -----
  bond angle:     H          N          H            119.715
  bond angle:     H          N          H            119.715
  bond angle:     H          N          H            120.570




 CPU time statistics for ABACUS
 ------------------------------




 >>>> Total CPU  time used in ABACUS:   0.27 seconds
 >>>> Total wall time used in ABACUS:   0.32 seconds


                   .-------------------------------------------.
                   | End of Static Property Section (ABACUS) - |
                   `-------------------------------------------'


@  Geometry walk step no.   1:  Molecular energy =    -56.165329   Molecular gradient =  0.101653


     @@>>>>>>>>>> Geometry walk iteration number:    2 <<<<<<<<<<




 **************************************************************************************
 ****************** Output of molecule and basis set info suppressed ******************
 **************************************************************************************



                     .---------------------------------------.
                     | Starting in Integral Section (HERMIT) |
                     `---------------------------------------'



     ************************************************************************
     ************************** Output from HERINT **************************
     ************************************************************************


 Threshold for neglecting two-electron integrals:  1.00D-12
 Number of two-electron integrals written:       97002 ( 89.5% )
 Megabytes written:                              1.113

 >>>> Total CPU  time used in HERMIT:   0.04 seconds
 >>>> Total wall time used in HERMIT:   0.05 seconds


                        .----------------------------------.
                        | End of Integral Section (HERMIT) |
                        `----------------------------------'



                   .--------------------------------------------.
                   | Starting in Wave Function Section (SIRIUS) |
                   `--------------------------------------------'


 **********************************************************************
 *SIRIUS* a direct, restricted step, second order MCSCF program       *
 **********************************************************************

 (Wave function specification suppressed here, see output above for initial geometry.)


 >>>>> DIIS optimization of Hartree-Fock <<<<<

 C1-DIIS algorithm; max error vectors =    5

 Iter      Total energy        Error norm    Delta(E)  DIIS dim.
 -----------------------------------------------------------------------------
     (Precalculated two-electron integrals are transformed to P-supermatrix elements.
      Threshold for discarding integrals :  1.00D-12 )
@  1    -55.6036808591        4.57781D+00    5.62D-01    1
      Virial theorem: -V/T =      1.980684
@      MULPOP N      -0.80; H       0.18; H       0.31; H       0.31; 
 -----------------------------------------------------------------------------
@  2    -56.1796875697        4.16614D-01   -5.76D-01    2
      Virial theorem: -V/T =      2.001949
@      MULPOP N      -0.87; H       0.27; H       0.30; H       0.30; 
 -----------------------------------------------------------------------------
@  3    -56.1864328879        3.02872D-02   -6.75D-03    3
      Virial theorem: -V/T =      2.002579
@      MULPOP N      -0.86; H       0.29; H       0.29; H       0.29; 
 -----------------------------------------------------------------------------
@  4    -56.1865279944        8.73485D-03   -9.51D-05    4
      Virial theorem: -V/T =      2.002239
@      MULPOP N      -0.86; H       0.29; H       0.29; H       0.29; 
 -----------------------------------------------------------------------------
@  5    -56.1865361976        3.45542D-03   -8.20D-06    5
      Virial theorem: -V/T =      2.002415
@      MULPOP N      -0.86; H       0.29; H       0.29; H       0.29; 
 -----------------------------------------------------------------------------
@  6    -56.1865373216        5.84717D-04   -1.12D-06    5
      Virial theorem: -V/T =      2.002346
@      MULPOP N      -0.86; H       0.29; H       0.29; H       0.29; 
 -----------------------------------------------------------------------------
@  7    -56.1865373548        8.64447D-05   -3.32D-08    5
      Virial theorem: -V/T =      2.002352
@      MULPOP N      -0.86; H       0.29; H       0.29; H       0.29; 
 -----------------------------------------------------------------------------
@  8    -56.1865373556        1.76206D-05   -7.96D-10    5
      Virial theorem: -V/T =      2.002352
@      MULPOP N      -0.86; H       0.29; H       0.29; H       0.29; 
 -----------------------------------------------------------------------------
@  9    -56.1865373557        3.74817D-06   -4.07D-11    5
      Virial theorem: -V/T =      2.002352
@      MULPOP N      -0.86; H       0.29; H       0.29; H       0.29; 
 -----------------------------------------------------------------------------
@ 10    -56.1865373557        7.11525D-07   -2.00D-12    5

@ *** DIIS converged in  10 iterations !
@     Converged SCF energy, gradient:    -56.186537355657    7.12D-07
    - total time used in SIRFCK :              0.00 seconds


 *** SCF orbital energy analysis ***

 Only the five lowest virtual orbital energies printed in each symmetry.

 Number of electrons :   10
 Orbital occupations :    5

 Sym       Hartree-Fock orbital energies

  1    -15.51668161    -1.11545650    -0.64134081    -0.63960381    -0.38004739
         0.23145501     0.33044047     0.33256159     0.92657376     0.93390107

    E(LUMO) :     0.23145501 au (symmetry 1)
  - E(HOMO) :    -0.38004739 au (symmetry 1)
  ------------------------------------------
    gap     :     0.61150241 au

 >>> Writing SIRIFC interface file <<<


 Check ratio for geometry walk with converged SCF :



 >>> step control for geometry walk (ABACUS interface)


 (SIRSTP) Energy difference;
 actual, predicted and ratio:  -0.0212084752  -0.0223333111    0.949634


 *** GEOMETRY WALK STEP ACCEPTED.


 >>>> CPU and wall time for SCF :       0.034       0.052


                       .-----------------------------------.
                       | >>> Final results from SIRIUS <<< |
                       `-----------------------------------'


@    Spin multiplicity:           1
@    Spatial symmetry:            1
@    Total charge of molecule:    0

@    Final HF energy:             -56.186537355657                 
@    Nuclear repulsion:            12.121214783387
@    Electronic energy:           -68.307752139043

@    Final gradient norm:           0.000000711525

 
     Date and time (Linux)  : Mon Oct 21 15:28:35 2013
     Host name              : c10-6.local                             



 >>>> Total CPU  time used in SIRIUS :      0.04 seconds
 >>>> Total wall time used in SIRIUS :      0.08 seconds

 
     Date and time (Linux)  : Mon Oct 21 15:28:35 2013
     Host name              : c10-6.local                             

 NOTE:    1 informational messages have been issued.
 Check output, result, and error files for "INFO".


                     .---------------------------------------.
                     | End of Wave Function Section (SIRIUS) |
                     `---------------------------------------'


 Center of mass dipole origin  :   -0.265547    0.000000    0.000000

 Center of mass gauge origin   :   -0.265547    0.000000    0.000000


                 .------------------------------------------------.
                 | Starting in Static Property Section (ABACUS) - |
                 `------------------------------------------------'


 
     Date and time (Linux)  : Mon Oct 21 15:28:35 2013
     Host name              : c10-6.local                             

 Old LUGDR file opened in ORTREL.

 Largest deviation from tra-rot symmetry is in gradient element  5:  5.13E-12


   ***************************************************************************
   ************************ FINAL RESULTS from ABACUS ************************
   ***************************************************************************


 
     Date and time (Linux)  : Mon Oct 21 15:28:35 2013
     Host name              : c10-6.local                             


                             Molecular geometry (au)
                             -----------------------

 N         -0.2650804846            0.0000000512            0.0000000760
 H          1.5942907222           -0.0000000628           -0.0000000305
 H         -1.1987051670            1.6358295745           -0.0000000227
 H         -1.1987050707           -1.6358295629           -0.0000000227





                        Molecular wave function and energy
                        ----------------------------------

     Spin multiplicity  1     State number       1     Total charge       0

     Total energy        -56.1865373557 au (Hartrees)
                         -1528.91345541 eV
                           -147517.7311 kJ/mol


                             Relativistic corrections
                             ------------------------

     Darwin correction:                          0.1118370375 au
     Mass-velocity correction:                  -0.1401802507 au

     Total relativistic correction:             -0.0283432132 au (0.0504%)
     Non-relativistic + relativistic energy:   -56.2148805689 au




                             Molecular gradient (au)
                             -----------------------

 N          0.0116238948            0.0000000289           -0.0000000071
 H         -0.0031237048           -0.0000000117            0.0000000028
 H         -0.0042500972            0.0098130916            0.0000000022
 H         -0.0042500928           -0.0098131088            0.0000000022





                              Molecular Hessian (au)
                              ----------------------

           N    x      N    y      N    z      H    x      H    y      H    z

 N    x    0.951912
 N    y   -0.000000    0.906940
 N    z   -0.000000   -0.000000   -0.069707

 H    x   -0.563280    0.000000    0.000000    0.577846
 H    y    0.000000   -0.082274    0.000000   -0.000000    0.067013
 H    z    0.000000    0.000000    0.027463   -0.000000   -0.000000   -0.010299

 H    x   -0.194316    0.185021   -0.000000   -0.007283    0.034685   -0.000000
 H    y    0.186164   -0.412333    0.000000   -0.007457    0.007630   -0.000000
 H    z   -0.000000    0.000000    0.021122    0.000000   -0.000000   -0.008582

 H    x   -0.194316   -0.185021   -0.000000   -0.007283   -0.034685   -0.000000
 H    y   -0.186164   -0.412333   -0.000000    0.007457    0.007630   -0.000000
 H    z   -0.000000   -0.000000    0.021122    0.000000    0.000000   -0.008582


           H    x      H    y      H    z      H    x      H    y      H    z

 H    x    0.186208
 H    y   -0.199207    0.419069
 H    z    0.000000   -0.000000   -0.003271

 H    x    0.015391    0.020500    0.000000    0.186208
 H    y   -0.020500   -0.014367   -0.000000    0.199207    0.419069
 H    z    0.000000    0.000000   -0.009269    0.000000    0.000000   -0.003270





                                  Dipole moment
                                  -------------

                 au               Debye          C m (/(10**-30)
              0.001026           0.002608           0.008700


                             Dipole moment components
                             ------------------------

                 au               Debye          C m (/(10**-30)

      x     -0.00102620        -0.00260833        -0.00870046
      y     -0.00000003        -0.00000008        -0.00000026
      z     -0.00000012        -0.00000031        -0.00000104


   Units:   1 a.u. =   2.54175 Debye 
            1 a.u. =   8.47835 (10**-30) C m (SI)




   Interatomic separations (in Angstrom):
   --------------------------------------

            N           H           H           H     
            ------      ------      ------      ------
 N     :    0.000000
 H     :    0.983937    0.000000
 H     :    0.996708    1.712832    0.000000
 H     :    0.996708    1.712832    1.731287    0.000000


  Max    interatomic separation is    1.7313 Angstrom (    3.2717 Bohr)
  between atoms    4 and    3, "H     " and "H     ".

  Min HX interatomic separation is    0.9839 Angstrom (    1.8594 Bohr)


  Bond distances (Angstrom):
  --------------------------

                  atom 1     atom 2       distance
                  ------     ------       --------
  bond distance:  H          N            0.983937
  bond distance:  H          N            0.996708
  bond distance:  H          N            0.996708


  Bond angles (degrees):
  ----------------------

                  atom 1     atom 2     atom 3         angle
                  ------     ------     ------         -----
  bond angle:     H          N          H            119.715
  bond angle:     H          N          H            119.715
  bond angle:     H          N          H            120.570



 Overlap between normal coordinate  1 and the normal coordinate walk 
 direction of the previous iteration is equal to 0.99743

 Largest deviation from orthonormality of OMOs:0.532907E-13
 - found for element   21  21


   ***************************************************************************
   ************************* FINAL RESULTS FROM WALK *************************
   ***************************************************************************


 Walk type: TS by minimization on image surface       

 Iteration number:  2

  Norm of molecular gradient:     0.0193285527

@ Energy at current point:   -56.1865373557
  Energy at initial point:   -56.0799902962

  Change in energy since start of walk:-0.1065470595 au
                                             -279.74 kJ/mol
                                              -66.86 kCal/mol

@ Ratio between actual and predicted energies:  0.95

@ Hessian index: 1
@ Image index:   0
  Initial index: 2
  Target index:  1

@ Image mode: 1

@ Angle between gradient and walk mode: 90.00 deg 
@ Angle between old and new walk modes:  4.11 deg 
@ Angle between old and new steps:      32.51 deg 


   sym        #int        #ext       gradient     index       cond. num.
   ---------------------------------------------------------------------
    1           6           6       1.932855D-02    1          1.57D+01



                      +-------------------------------------+
                      ! Analysis in diagonal representation !
                      +-------------------------------------+


@  iter   sym     mode      gradient     eigenvalue       step        energy 
@  ----------------------------------------------------------------------------
@    2     1       1<    -0.00000001   -0.09295497   -0.00000010    0.00000000 
@    2     1       2     -0.00000000    0.15803291    0.00000000   -0.00000000 
@    2     1       3     -0.00334168    0.16142546    0.02070105<  -0.00003459 
@    2     1       4     -0.01103475    0.54109098    0.02039353   -0.00011252<
@    2     1       5      0.00000005    1.38819601   -0.00000004   -0.00000000 
@    2     1       6      0.01551323<   1.46227687<  -0.01060896   -0.00008229 

  This is Newton step.


                              +----------------------+
                              ! Hessian eigenvectors !
                              +----------------------+


   sym 1            1           2           3           4           5
  ----------------------------------------------------------------------

   N    x      -0.000000   -0.000002    0.332618   -0.030829    0.000001
   N    y       0.000000   -0.330303   -0.000002   -0.000000    0.800562
   N    z       0.866025    0.000000    0.000000   -0.000000   -0.000000

   H    x      -0.000000   -0.000002    0.420160   -0.560322   -0.000001
   H    y      -0.000000    0.647775    0.000003   -0.000000   -0.045449
   H    z      -0.289489   -0.000000    0.000000    0.000000    0.000000

   H    x       0.000000    0.458746   -0.376387    0.295576    0.189654
   H    y      -0.000000   -0.158734   -0.463408   -0.505153   -0.377556
   H    z      -0.288268   -0.000000   -0.000000    0.000000    0.000000

   H    x       0.000000   -0.458742   -0.376392    0.295576   -0.189655
[...]
  bond angle:     H          N          H            120.000
  bond angle:     H          N          H            120.000
  bond angle:     H          N          H            120.000




   ***************************************************************************
   ************************* FINAL RESULTS FROM WALK *************************
   ***************************************************************************


 Walk type: TS by minimization on image surface       

 Iteration number:  4

  Norm of molecular gradient:     0.0000006154

@ Energy at current point:   -56.1867624394
  Energy at initial point:   -56.0799902962

  Change in energy since start of walk:-0.1067721432 au
                                             -280.33 kJ/mol
                                              -67.00 kCal/mol

@ Ratio between actual and predicted energies:  1.00

@ Hessian index: 1

@ Geometry optimization has converged.


   sym        #int        #ext       gradient     index       cond. num.
   ---------------------------------------------------------------------
    1           6           6       6.153509D-07    1          1.42D+01



                +-------------------------------------------------+
                ! Gradient and Hessian in diagonal representation !
                +-------------------------------------------------+


           @sym        mode          gradient        eigenvalue    
           @-------------------------------------------------------
            @ 1           1         0.0000000001    -0.1037471613
            @ 1           2         0.0000000537     0.1578413357
            @ 1           3        -0.0000000048     0.1578414573
            @ 1           4         0.0000003718     0.5625390513
            @ 1           5        -0.0000004873     1.4729167016
            @ 1           6         0.0000000021     1.4729188802


                              +----------------------+
                              ! Hessian eigenvectors !
                              +----------------------+


   sym 1            1           2           3           4           5
  ----------------------------------------------------------------------

   N    x       0.000000    0.333753   -0.029613    0.000001    0.798574
   N    y       0.000000   -0.029613   -0.333753    0.000000    0.003414
   N    z       0.866025   -0.000000    0.000000    0.000000   -0.000000

   H    x      -0.000000    0.419053   -0.037181   -0.577351   -0.489565
   H    y      -0.000000    0.056923    0.641555   -0.000000   -0.000183
   H    z      -0.288675   -0.000000    0.000000    0.000000    0.000000

   H    x      -0.000000   -0.335655    0.492654    0.288675   -0.153678
   H    y       0.000000   -0.472912   -0.113153   -0.500000    0.191832
   H    z      -0.288675    0.000000   -0.000000   -0.000000    0.000000

   H    x      -0.000000   -0.417152   -0.425860    0.288675   -0.155332
   H    y      -0.000000    0.445602   -0.194650    0.500000   -0.195063
   H    z      -0.288675    0.000000    0.000000   -0.000000    0.000000


   sym 1            6
  ----------------------
   N    x      -0.003414
   N    y       0.798574
   N    z       0.000000

   H    x       0.002093
   H    y      -0.042818
   H    z      -0.000000

   H    x       0.194108
   H    y      -0.378705
   H    z      -0.000000

   H    x      -0.192787
   H    y      -0.377051
   H    z       0.000000




                                 +----------------+
                                 ! Final geometry !
                                 +----------------+



                            Cartesian coordinates (au)
                            --------------------------

 N         -0.2670501187           -0.0000000000           -0.0000000002
 H          1.5972451211            0.0000000049           -0.0000000052
 H         -1.1991975054            1.6145264249            0.0000000027
 H         -1.1991974969           -1.6145264298            0.0000000027





   Interatomic separations (in Angstrom):
   --------------------------------------

            N           H           H           H     
            ------      ------      ------      ------
 N     :    0.000000
 H     :    0.986543    0.000000
 H     :    0.986542    1.708742    0.000000
 H     :    0.986542    1.708742    1.708741    0.000000


  Max    interatomic separation is    1.7087 Angstrom (    3.2291 Bohr)
  between atoms    3 and    2, "H     " and "H     ".

  Min HX interatomic separation is    0.9865 Angstrom (    1.8643 Bohr)


  Bond distances (Angstrom):
  --------------------------

                  atom 1     atom 2       distance
                  ------     ------       --------
  bond distance:  H          N            0.986543
  bond distance:  H          N            0.986542
  bond distance:  H          N            0.986542


  Bond angles (degrees):
  ----------------------

                  atom 1     atom 2     atom 3         angle
                  ------     ------     ------         -----
  bond angle:     H          N          H            120.000
  bond angle:     H          N          H            120.000
  bond angle:     H          N          H            120.000




 CPU time statistics for ABACUS
 ------------------------------

 REST       00:00:01     404 %



 >>>> Total CPU  time used in ABACUS:   0.35 seconds
 >>>> Total wall time used in ABACUS:   0.39 seconds


                   .-------------------------------------------.
                   | End of Static Property Section (ABACUS) - |
                   `-------------------------------------------'


@  Geometry walk step no.   4:  Molecular energy =    -56.186762   Molecular gradient =  0.000001


                          .-----------------------------.
                          | Geometry walk has converged |
                          `-----------------------------'



        *****************************************************************
        ******** Output from **PROPE input processing for ABACUS ********
        *****************************************************************



 The following molecular properties will be calculated in this run:
 ------------------------------------------------------------------

 Default print level:        0

      Vibrational analysis
      Cioslowski population analysis and static polarizabilities only.
      Natural orbital connection is used
      for perturbation dependent basis sets.

 Center of mass dipole origin  :   -0.267050   -0.000000   -0.000000

 Center of mass gauge origin   :   -0.267050   -0.000000   -0.000000


                 .------------------------------------------------.
                 | Starting in Static Property Section (ABACUS) - |
                 `------------------------------------------------'


 
     Date and time (Linux)  : Mon Oct 21 15:28:36 2013
     Host name              : c10-6.local                             

 Old LUGDR file opened in ORTREL.


   ***************************************************************************
   ************************ FINAL RESULTS from ABACUS ************************
   ***************************************************************************


 
     Date and time (Linux)  : Mon Oct 21 15:28:36 2013
     Host name              : c10-6.local                             


                             Molecular geometry (au)
                             -----------------------

 N         -0.2670501187           -0.0000000000           -0.0000000002
 H          1.5972451211            0.0000000049           -0.0000000052
 H         -1.1991975054            1.6145264249            0.0000000027
 H         -1.1991974969           -1.6145264298            0.0000000027





                        Molecular wave function and energy
                        ----------------------------------

     Spin multiplicity  1     State number       1     Total charge       0

     Total energy        -56.1867624394 au (Hartrees)
                         -1528.91958025 eV
                           -147518.3220 kJ/mol


                             Relativistic corrections
                             ------------------------

     Darwin correction:                          0.1118441644 au
     Mass-velocity correction:                  -0.1401940108 au

     Total relativistic correction:             -0.0283498464 au (0.0505%)
     Non-relativistic + relativistic energy:   -56.2151122858 au




                                  Dipole moment
                                  -------------

                 au               Debye          C m (/(10**-30)
              0.000000           0.000000           0.000001


                             Dipole moment components
                             ------------------------

                 au               Debye          C m (/(10**-30)

      x      0.00000014         0.00000036         0.00000121
      y      0.00000000         0.00000000         0.00000000
      z      0.00000000         0.00000000         0.00000000


   Units:   1 a.u. =   2.54175 Debye 
            1 a.u. =   8.47835 (10**-30) C m (SI)




                           Dipole moment gradient (au)
                           ---------------------------

                       Ex             Ey             Ez

        N    x    -0.46525473     0.00000000    -0.00000000
        N    y     0.00000000    -0.46525501     0.00000000
        N    z    -0.00000000    -0.00000000    -1.21850827

        H    x     0.15140767    -0.00000000     0.00000000
        H    y    -0.00000000     0.15876238    -0.00000000
        H    z     0.00000000     0.00000000     0.40616941

        H    x     0.15692353     0.00318468     0.00000000
        H    y     0.00318460     0.15324632    -0.00000000
        H    z     0.00000000    -0.00000000     0.40616943

        H    x     0.15692353    -0.00318468     0.00000000
        H    y    -0.00318460     0.15324632     0.00000000
        H    z     0.00000000     0.00000000     0.40616943





                            +-------------------------+
                            ! APT Population Analysis !
                            +-------------------------+


      [ Reference : J. Cioslowski, J.Am.Chem.Soc. 111 (1989) 8333 ]

                            N        -0.716339
                            H         0.238780
                            H         0.238780
                            H         0.238780



                           Static polarizabilities (au)
                           ----------------------------

                         Ex          Ey          Ez

            Ex       8.479540   -0.000000   -0.000000
            Ey      -0.000000    8.479535   -0.000000
            Ez      -0.000000   -0.000000    4.134296



                      Static polarizabilities (angstroms**3)
                      --------------------------------------

                         Ex          Ey          Ez

            Ex       1.256538   -0.000000   -0.000000
            Ey      -0.000000    1.256537   -0.000000
            Ez      -0.000000   -0.000000    0.612639



                +--------------------------------------------------+
                ! Principal values and axes of polarizability (au) !
                +--------------------------------------------------+



                value              x          y          z
             ---------------------------------------------

                8.4795          1.0000    -0.0000    -0.0000
                8.4795          0.0000     1.0000    -0.0000
                4.1343          0.0000     0.0000     1.0000


            Mean value:    7.0311        Anisotropy:    4.3452





   Interatomic separations (in Angstrom):
   --------------------------------------

            N           H           H           H     
            ------      ------      ------      ------
 N     :    0.000000
 H     :    0.986543    0.000000
 H     :    0.986542    1.708742    0.000000
 H     :    0.986542    1.708742    1.708741    0.000000


  Max    interatomic separation is    1.7087 Angstrom (    3.2291 Bohr)
  between atoms    3 and    2, "H     " and "H     ".

  Min HX interatomic separation is    0.9865 Angstrom (    1.8643 Bohr)


  Bond distances (Angstrom):
  --------------------------

                  atom 1     atom 2       distance
                  ------     ------       --------
  bond distance:  H          N            0.986543
  bond distance:  H          N            0.986542
  bond distance:  H          N            0.986542


  Bond angles (degrees):
  ----------------------

                  atom 1     atom 2     atom 3         angle
                  ------     ------     ------         -----
  bond angle:     H          N          H            120.000
  bond angle:     H          N          H            120.000
  bond angle:     H          N          H            120.000




   ****************************************************************************
   *************** ABACUS - ROTATIONAL AND VIBRATIONAL ANALYSIS ***************
   ****************************************************************************


 Norm of (unprojected) molecular gradient (au) :     0.00000000


 Conversion factors used:

    Hartree to (cm)-1      : 219474.62934
    a.m.u.  to a.u.        :   1822.88848
    Bohr    to Angstrom    :  0.529177211
    a.u.    to A**4amu-1   :   142.943572
    a.u.    to km (mol)-1  :      974.864


 Vibrational analysis for parent molecule only.
  Norm of projected gradient     0.000000


                         Isotopic Molecule No. 1
                         ======================= 


                                 Isotopic Masses
                                 ---------------

                           N          14.003074
                           H           1.007825
                           H           1.007825
                           H           1.007825

                       Total mass:    17.026549 amu
                       Natural abundance:  99.585 %

 Center-of-mass coordinates (a.u.):   -0.267050   -0.000000   -0.000000


 Principal moments of inertia (u*A**2) and principal axes
 --------------------------------------------------------

   IA       1.471322          1.000000   -0.000001   -0.000000
   IB       1.471323          0.000001    1.000000   -0.000000
   IC       2.942645          0.000000    0.000000    1.000000


 Rotational constants
 --------------------

 The molecule is planar.

               A                   B                   C

         343486.3571         343486.1556         171743.1282 MHz
           11.457472           11.457465            5.728734 cm-1


  Vibrational Frequencies and IR Intensities
  ------------------------------------------

  mode   irrep        frequency             IR intensity
  ============================================================
                  cm-1       hartrees     km/mol   (D/A)**2/amu
  ------------------------------------------------------------
   1      A      4065.90    0.018526     43.347   1.0258
   2      A      4065.89    0.018526     43.347   1.0258
   3      A      3840.50    0.017499      0.000   0.0000
   4      A      1714.31    0.007811     41.557   0.9835
   5      A      1714.31    0.007811     41.556   0.9835
   6      A       909.33i   0.004143i



  Normal Coordinates (bohrs*amu**(1/2)):
  --------------------------------------


                1  4066     2  4066     3  3841     4  1714     5  1714 
  ----------------------------------------------------------------------

    N      x    0.000436   -0.082137    0.000001   -0.006772   -0.076737
    N      y   -0.082137   -0.000436    0.000000   -0.076737    0.006772
    N      z   -0.000000    0.000000    0.000000    0.000000    0.000000

    H      x   -0.004105    0.773824   -0.575112   -0.005511   -0.062451
    H      y   -0.013006   -0.000069   -0.000000    0.773261   -0.068239
    H      z    0.000000   -0.000000    0.000000    0.000000    0.000000

    H      x   -0.341684    0.181898    0.287551    0.411675    0.532398
    H      y    0.578927   -0.337653   -0.498052    0.178412    0.348948
    H      z    0.000000   -0.000000   -0.000000   -0.000000   -0.000000

    H      x    0.339735    0.185512    0.287551   -0.312073    0.596268
    H      y    0.575313    0.343775    0.498052    0.114543   -0.374800
    H      z   -0.000000   -0.000000   -0.000000    0.000000   -0.000000


                6   909i
  ----------------------

    N      x   -0.000000
    N      y   -0.000000
    N      z   -0.112610

    H      x    0.000000
    H      y    0.000000
    H      z    0.521549

    H      x    0.000000
    H      y   -0.000000
    H      z    0.521549

    H      x    0.000000
    H      y    0.000000
    H      z    0.521549




  Dipole Gradient in Normal Coordinate Basis (D/(A*amu**(1/2)))
  -------------------------------------------------------------


  mode           dMA/dQi        dMB/dQi        dMC/dQi
  ----------------------------------------------------
   1           -0.005372       1.012816      -0.000000
   2            1.012816       0.005372      -0.000000
   3           -0.000009      -0.000000      -0.000000
   4            0.087177       0.987857      -0.000000
   5            0.987856      -0.087177      -0.000000
   6            0.000000       0.000000       3.711573



                              Total Molecular Energy
                              ----------------------

             electronic     vibrational           total    energy 

             -56.186762        0.035086      -56.151677    Hartrees
           -12331568.86         7700.45    -12323868.41    cm-1
             -147518.32           92.12      -147426.20    kJ/mol
              -35257.73           22.02       -35235.71    kcal/mol


                          Molecular Partition Functions
                          -----------------------------

 Qtran is evaluated per mol at 1 atm. pressure.
 Qrot does not include symmetry numbers.
 Qvib does not include zero point energies
 (i.e., energy scale has vibrational ground state as zero).


 Temp.(K)  Translational     Rotational    Vibrational      Total

    50.00     3.1804D+04          13.97         1.0000   4.442493D+05
   100.00     1.7991D+05          38.48         1.0000   6.922870D+06
   200.00     1.0177D+06         107.38         1.0000   1.092859D+08
   273.15     2.2185D+06         170.77         1.0002   3.789400D+08
   298.15     2.7615D+06         194.58         1.0005   5.376008D+08
   300.00     2.8045D+06         196.38         1.0005   5.510523D+08
   400.00     5.7571D+06         301.66         1.0042   1.744029D+09
   500.00     1.0057D+07         421.01         1.0146   4.296054D+09
   600.00     1.5865D+07         552.93         1.0338   9.068929D+09
   700.00     2.3324D+07         696.32         1.0626   1.725750D+10
   800.00     3.2567D+07         850.33         1.1009   3.048695D+10
   900.00     4.3718D+07        1014.26         1.1487   5.093277D+10
  1000.00     5.6892D+07        1187.55         1.2058   8.146861D+10
  1500.00     1.5678D+08        2179.68         1.6414   5.609130D+11
  2000.00     3.2183D+08        3354.30         2.3733   2.562037D+12


 CPU time statistics for ABACUS
 ------------------------------




 >>>> Total CPU  time used in ABACUS:   0.25 seconds
 >>>> Total wall time used in ABACUS:   0.93 seconds


                   .-------------------------------------------.
                   | End of Static Property Section (ABACUS) - |
                   `-------------------------------------------'

 >>>> Total CPU  time used in DALTON:   2.32 seconds
 >>>> Total wall time used in DALTON:   3.47 seconds

 
     Date and time (Linux)  : Mon Oct 21 15:28:37 2013
     Host name              : c10-6.local                             
