

     ************************************************************************
     *************** Dalton - An Electronic Structure Program ***************
     ************************************************************************

    This is output from DALTON (Release Dalton2013 patch 0)
   ----------------------------------------------------------------------------
    NOTE:
     
    Dalton is an experimental code for the evaluation of molecular
    properties using (MC)SCF, DFT, CI, and CC wave functions.
    The authors accept no responsibility for the performance of
    the code or for the correctness of the results.
     
    The code (in whole or part) is provided under a licence and
    is not to be reproduced for further distribution without
    the written permission of the authors or their representatives.
     
    See the home page "http://daltonprogram.org" for further information.
     
    If results obtained with this code are published,
    the appropriate citations would be both of:
     
       K. Aidas, C. Angeli, K. L. Bak, V. Bakken, R. Bast,
       L. Boman, O. Christiansen, R. Cimiraglia, S. Coriani,
       P. Dahle, E. K. Dalskov, U. Ekstroem, T. Enevoldsen,
       J. J. Eriksen, P. Ettenhuber, B. Fernandez, L. Ferrighi,
       H. Fliegl, L. Frediani, K. Hald, A. Halkier, C. Haettig,
       H. Heiberg, T. Helgaker, A. C. Hennum, H. Hettema,
       E. Hjertenaes, S. Hoest, I.-M. Hoeyvik, M. F. Iozzi,
       B. Jansik, H. J. Aa. Jensen, D. Jonsson, P. Joergensen,
       J. Kauczor, S. Kirpekar, T. Kjaergaard, W. Klopper,
       S. Knecht, R. Kobayashi, H. Koch, J. Kongsted, A. Krapp,
       K. Kristensen, A. Ligabue, O. B. Lutnaes, J. I. Melo,
       K. V. Mikkelsen, R. H. Myhre, C. Neiss, C. B. Nielsen,
       P. Norman, J. Olsen, J. M. H. Olsen, A. Osted,
       M. J. Packer, F. Pawlowski, T. B. Pedersen, P. F. Provasi,
       S. Reine, Z. Rinkevicius, T. A. Ruden, K. Ruud, V. Rybkin,
       P. Salek, C. C. M. Samson, A. Sanchez de Meras, T. Saue,
       S. P. A. Sauer, B. Schimmelpfennig, K. Sneskov,
       A. H. Steindal, K. O. Sylvester-Hvid, P. R. Taylor,
       A. M. Teale, E. I. Tellgren, D. P. Tew, A. J. Thorvaldsen,
       L. Thoegersen, O. Vahtras, M. A. Watson, D. J. D. Wilson,
       M. Ziolkowski and H. Agren.
       The Dalton quantum chemistry program system.
       WIREs Comput. Mol. Sci. 2013. doi: 10.1002/wcms.1172
    
    and
    
       Dalton, a Molecular Electronic Structure Program,
       Release DALTON2013.0 (2013), see http://daltonprogram.org
   ----------------------------------------------------------------------------

    Authors in alphabetical order (major contribution(s) in parenthesis):

  Kestutis Aidas,           Vilnius University,           Lithuania   (QM/MM)
  Celestino Angeli,         University of Ferrara,        Italy       (NEVPT2)
  Keld L. Bak,              UNI-C,                        Denmark     (AOSOPPA, non-adiabatic coupling, magnetic properties)
  Vebjoern Bakken,          University of Oslo,           Norway      (DALTON; geometry optimizer, symmetry detection)
  Radovan Bast,             KTH Stockholm                 Sweden      (DALTON installation and execution frameworks)
  Linus Boman,              NTNU,                         Norway      (Cholesky decomposition and subsystems)
  Ove Christiansen,         Aarhus University,            Denmark     (CC module)
  Renzo Cimiraglia,         University of Ferrara,        Italy       (NEVPT2)
  Sonia Coriani,            University of Trieste,        Italy       (CC module, MCD in RESPONS)
  Paal Dahle,               University of Oslo,           Norway      (Parallelization)
  Erik K. Dalskov,          UNI-C,                        Denmark     (SOPPA)
  Thomas Enevoldsen,        Univ. of Southern Denmark,    Denmark     (SOPPA)
  Janus J. Eriksen,         Aarhus University,            Denmark     (PE-MP2/SOPPA, TDA)
  Berta Fernandez,          U. of Santiago de Compostela, Spain       (doublet spin, ESR in RESPONS)
  Lara Ferrighi,            Aarhus University,            Denmark     (PCM Cubic response)
  Heike Fliegl,             University of Oslo,           Norway      (CCSD(R12))
  Luca Frediani,            UiT The Arctic U. of Norway,  Norway      (PCM)
  Bin Gao,                  UiT The Arctic U. of Norway,  Norway      (Gen1Int library)
  Christof Haettig,         Ruhr-University Bochum,       Germany     (CC module)
  Kasper Hald,              Aarhus University,            Denmark     (CC module)
  Asger Halkier,            Aarhus University,            Denmark     (CC module)
  Hanne Heiberg,            University of Oslo,           Norway      (geometry analysis, selected one-electron integrals)
  Trygve Helgaker,          University of Oslo,           Norway      (DALTON; ABACUS, ERI, DFT modules, London, and much more)
  Alf Christian Hennum,     University of Oslo,           Norway      (Parity violation)
  Hinne Hettema,            University of Auckland,       New Zealand (quadratic response in RESPONS; SIRIUS supersymmetry)
  Eirik Hjertenaes,         NTNU,                         Norway      (Cholesky decomposition)
  Maria Francesca Iozzi,    University of Oslo,           Norway      (RPA)
  Brano Jansik              Technical Univ. of Ostrava    Czech Rep.  (DFT cubic response)
  Hans Joergen Aa. Jensen,  Univ. of Southern Denmark,    Denmark     (DALTON; SIRIUS, RESPONS, ABACUS modules, London, and much more)
  Dan Jonsson,              UiT The Arctic U. of Norway,  Norway      (cubic response in RESPONS module)
  Poul Joergensen,          Aarhus University,            Denmark     (RESPONS, ABACUS, and CC modules)
  Joanna Kauczor,           Linkoeping University,        Sweden      (Complex polarization propagator (CPP) module)
  Sheela Kirpekar,          Univ. of Southern Denmark,    Denmark     (Mass-velocity & Darwin integrals)
  Wim Klopper,              KIT Karlsruhe,                Germany     (R12 code in CC, SIRIUS, and ABACUS modules)
  Stefan Knecht,            ETH Zurich,                   Switzerland (Parallel CI and MCSCF)
  Rika Kobayashi,           Australian National Univ.,    Australia   (DIIS in CC, London in MCSCF)
  Henrik Koch,              NTNU,                         Norway      (CC module, Cholesky decomposition)
  Jacob Kongsted,           Univ. of Southern Denmark,    Denmark     (Polarizable embedding, QM/MM)
  Andrea Ligabue,           University of Modena,         Italy       (CTOCD, AOSOPPA)
  Ola B. Lutnaes,           University of Oslo,           Norway      (DFT Hessian)
  Juan I. Melo,             University of Buenos Aires,   Argentina   (LRESC, Relativistic Effects on NMR Shieldings)
  Kurt V. Mikkelsen,        University of Copenhagen,     Denmark     (MC-SCRF and QM/MM)
  Rolf H. Myhre,            NTNU,                         Norway      (Cholesky, subsystems and ECC2)
  Christian Neiss,          Univ. Erlangen-Nuernberg,     Germany     (CCSD(R12))
  Christian B. Nielsen,     University of Copenhagen,     Denmark     (QM/MM)
  Patrick Norman,           Linkoeping University,        Sweden      (Cubic response and complex response in RESPONS)
  Jeppe Olsen,              Aarhus University,            Denmark     (SIRIUS CI/density modules)
  Jogvan Magnus H. Olsen,   Univ. of Southern Denmark,    Denmark     (Polarizable embedding, PE library, QM/MM)
  Anders Osted,             Copenhagen University,        Denmark     (QM/MM)
  Martin J. Packer,         University of Sheffield,      UK          (SOPPA)
  Filip Pawlowski,          Kazimierz Wielki University   Poland      (CC3)
  Thomas B. Pedersen,       University of Oslo,           Norway      (Cholesky decomposition)
  Patricio F. Provasi,      University of Northeastern,   Argentina   (Analysis of coupling constants in localized orbitals)
  Zilvinas Rinkevicius,     KTH Stockholm,                Sweden      (open-shell DFT, ESR)
  Elias Rudberg,            KTH Stockholm,                Sweden      (DFT grid and basis info)
  Torgeir A. Ruden,         University of Oslo,           Norway      (Numerical derivatives in ABACUS)
  Kenneth Ruud,             UiT The Arctic U. of Norway,  Norway      (DALTON; ABACUS magnetic properties and  much more)
  Pawel Salek,              KTH Stockholm,                Sweden      (DALTON; DFT code)
  Claire C. M. Samson       University of Karlsruhe       Germany     (Boys localization, r12 integrals in ERI)
  Alfredo Sanchez de Meras, University of Valencia,       Spain       (CC module, Cholesky decomposition)
  Trond Saue,               Paul Sabatier University,     France      (direct Fock matrix construction)
  Stephan P. A. Sauer,      University of Copenhagen,     Denmark     (SOPPA(CCSD), SOPPA prop., AOSOPPA, vibrational g-factors)
  Bernd Schimmelpfennig,    Forschungszentrum Karlsruhe,  Germany     (AMFI module)
  Kristian Sneskov,         Aarhus University,            Denmark     (QM/MM, PE-CC)
  Arnfinn H. Steindal,      UiT The Arctic U. of Norway,  Norway      (parallel QM/MM)
  K. O. Sylvester-Hvid,     University of Copenhagen,     Denmark     (MC-SCRF)
  Peter R. Taylor,          VLSCI/Univ. of Melbourne,     Australia   (Symmetry handling ABACUS, integral transformation)
  Andrew M. Teale,          University of Nottingham,     England     (DFT-AC, DFT-D)
  David P. Tew,             University of Bristol,        England     (CCSD(R12))
  Olav Vahtras,             KTH Stockholm,                Sweden      (triplet response, spin-orbit, ESR, TDDFT, open-shell DFT)
  David J. Wilson,          La Trobe University,          Australia   (DFT Hessian and DFT magnetizabilities)
  Hans Agren,               KTH Stockholm,                Sweden      (SIRIUS module, RESPONS, MC-SCRF solvation model)
 --------------------------------------------------------------------------------

     Date and time (Linux)  : Sun Sep  8 20:50:07 2013
     Host name              : lpqlx131.ups-tlse.fr                    

 * Work memory size             :    64000000 =  488.28 megabytes.

 * Directories for basis set searches:
   1) /home/bast/DALTON-2013.0-Source/build/test_rsp_solvesr
   2) /home/bast/DALTON-2013.0-Source/build/basis


Compilation information
-----------------------

 Who compiled             | bast
 Host                     | lpqlx131.ups-tlse.fr
 System                   | Linux-3.8.5-201.fc18.x86_64
 CMake generator          | Unix Makefiles
 Processor                | x86_64
 64-bit integers          | OFF
 MPI                      | OFF
 Fortran compiler         | /usr/bin/gfortran
 Fortran compiler version | GNU Fortran (GCC) 4.7.2 20121109 (Red Hat 4.7.2-8)
 C compiler               | /usr/bin/gcc
 C compiler version       | gcc (GCC) 4.7.2 20121109 (Red Hat 4.7.2-8)
 C++ compiler             | /usr/bin/g++
 C++ compiler version     | g++ (GCC) 4.7.2 20121109 (Red Hat 4.7.2-8)
 Static linking           | OFF
 Last Git revision        | f34203295a86316e27f9e7b44f9b6769c4a046c0
 Configuration time       | 2013-09-08 20:31:27.952056


   Content of the .dal input file
 ----------------------------------

**DALTON INPUT                                    
.RUN RESPONSE                                     
**INTEGRALS                                       
.FC                                               
.SD                                               
*ONEINT                                           
.SOLVENT                                          
 12                                               
**WAVE FUNCTIONS                                  
.HF                                               
.MCSCF                                            
*SCF INPUT                                        
.DOUBLY OCCUPIED                                  
 3 1                                              
.OPEN SH                                          
 1                                                
*CONFIGURATION INPUT                              
.INACTIVE                                         
 1 0                                              
.CAS SPACE                                        
 5 2                                              
.ELECTRONS                                        
 7                                                
.SPIN MULTIPLICITY                                
 2                                                
.SYMMETRY                                         
 1                                                
*SOLVENT                                          
.CAVITY                                           
 4.119                                            
.DIELEC                                           
 1.70                                             
.MAX L                                            
 12                                               
*OPTIMIZATION                                     
.DETERMINANTS                                     
.THRESHOLD                                        
 1D-8                                             
.TRACI                                            
**RESPON                                          
.TRPFLG                                           
*ESR                                              
.TRPPRP                                           
FC  C 01                                          
.TRPPRP                                           
FC  H102                                          
.TRPPRP                                           
FC  H203                                          
.TRPPRP                                           
FC  H204                                          
.TRPPRP                                           
SD 001 x                                          
.TRPPRP                                           
SD 001 y                                          
.TRPPRP                                           
SD 001 z                                          
.TRPPRP                                           
SD 002 x                                          
.TRPPRP                                           
SD 002 y                                          
.TRPPRP                                           
SD 002 z                                          
.TRPPRP                                           
SD 003 x                                          
.TRPPRP                                           
SD 003 y                                          
.TRPPRP                                           
SD 003 z                                          
.TRPPRP                                           
SD 004 x                                          
.TRPPRP                                           
SD 004 y                                          
.TRPPRP                                           
SD 004 z                                          
.TRPPRP                                           
SD 005 x                                          
.TRPPRP                                           
SD 005 y                                          
.TRPPRP                                           
SD 005 z                                          
.TRPPRP                                           
SD 006 x                                          
.TRPPRP                                           
SD 006 y                                          
.TRPPRP                                           
SD 006 z                                          
.TRPPRP                                           
SD 007 x                                          
.TRPPRP                                           
SD 007 y                                          
.TRPPRP                                           
SD 007 z                                          
.TRPPRP                                           
SD 008 x                                          
.TRPPRP                                           
SD 008 y                                          
.TRPPRP                                           
SD 008 z                                          
.TRPPRP                                           
SD 009 x                                          
.TRPPRP                                           
SD 009 y                                          
.TRPPRP                                           
SD 009 z                                          
.TRPPRP                                           
SD 010 x                                          
.TRPPRP                                           
SD 010 y                                          
.TRPPRP                                           
SD 010 z                                          
.TRPPRP                                           
SD 011 x                                          
.TRPPRP                                           
SD 011 y                                          
.TRPPRP                                           
SD 011 z                                          
.TRPPRP                                           
SD 012 x                                          
.TRPPRP                                           
SD 012 y                                          
.TRPPRP                                           
SD 012 z                                          
**END OF DALTON INPUT                             


   Content of the .mol file
 ----------------------------

INTGRL                                                                         
Calculation of ESR hyperfine couplings with solvent for the CH3 radical        
                                                                               
    2    1  Y         1.00D-15                                                 
        6.    1    4    3    1    1    1                                       
 C    0.00000    0.00000   0.0000                                              
    2    0                                                                     
74124.                                                                         
24708.                                                                         
    7    0                                                                     
8236.000                                                                       
1235.000                                                                       
280.8000                                                                       
79.27000                                                                       
25.59000                                                                       
8.997000                                                                       
3.319000                                                                       
    3    0                                                                     
.9059000                                                                       
.3643000                                                                       
.1285000                                                                       
    5    3                                                                     
18.71000  .01403100 .00000000 .00000000                                        
4.133000  .08686600 .00000000 .00000000                                        
1.200000  .29021600 .00000000 .00000000                                        
.3827000  .50100800 1.0000000 .00000000                                        
.1209000  .34340600 .00000000 1.0000000                                        
    2    2                                                                     
1.0970000 1.0000000 .00000000                                                  
.31800000 .00000000 1.0000000                                                  
    1    1                                                                     
.76100000 1.00000000                                                           
        1.    2    3    2    1    1                                            
 H1   -.118598   0.00000  2.036247                                             
 H2   -.118598  1.763441 -1.018124                                             
    2    0                                                                     
304.83                                                                         
101.61                                                                         
    5    0                                                                     
33.87000                                                                       
5.095000                                                                       
1.159000                                                                       
0.325800                                                                       
0.102700                                                                       
    2    0                                                                     
1.407000                                                                       
.3880000                                                                       
    1    1                                                                     
1.057000  1.00000000                                                           


       *******************************************************************
       *********** Output from DALTON general input processing ***********
       *******************************************************************

 --------------------------------------------------------------------------------
   Overall default print level:    0
   Print level for DALTON.STAT:    1

    HERMIT 1- and 2-electron integral sections will be executed
    "Old" integral transformation used (limited to max 255 basis functions)
    Wave function sections will be executed (SIRIUS module)
    Dynamic molecular response properties section will be executed (RESPONSE module)
 --------------------------------------------------------------------------------


   ****************************************************************************
   *************** Output of molecule and basis set information ***************
   ****************************************************************************


    The two title cards from your ".mol" input:
    ------------------------------------------------------------------------
 1: Calculation of ESR hyperfine couplings with solvent for the CH3 radical 
 2:                                                                         
    ------------------------------------------------------------------------

  Atomic type no.    1
  --------------------
  Nuclear charge:   6.00000
  Number of symmetry independent centers:    1
  Number of basis sets to read;    2

  Atomic type no.    2
  --------------------
  Nuclear charge:   1.00000
  Number of symmetry independent centers:    2
  Number of basis sets to read;    2


                         SYMGRP: Point group information
                         -------------------------------

Point group: Cs 

   * The point group was generated by:

      Reflection in the xz-plane

   * Group multiplication table

        |  E   Oxz
   -----+----------
     E  |  E   Oxz
    Oxz | Oxz   E 

   * Character table

        |  E   Oxz
   -----+----------
    A'  |   1    1
    A"  |   1   -1

   * Direct product table

        | A'   A" 
   -----+----------
    A'  | A'   A" 
    A"  | A"   A' 


                                 Isotopic Masses
                                 ---------------

                            C         12.000000
                            H1         1.007825
                            H2 _1      1.007825
                            H2 _2      1.007825

                       Total mass:    15.023475 amu
                       Natural abundance:  98.856 %

 Center-of-mass coordinates (a.u.):   -0.023868    0.000000   -0.000000


  Atoms and basis sets
  --------------------

  Number of atom types :    2
  Total number of atoms:    4

  label    atoms   charge   prim   cont     basis
  ----------------------------------------------------------------------
   C          1    6.0000    44    38      [12s5p2d1f|12s3p2d1f]                              
   H          3    1.0000    18    18      [7s2p1d|7s2p1d]                                    
  ----------------------------------------------------------------------
  total:      4    9.0000    98    92
  ----------------------------------------------------------------------
  Spherical harmonic basis used.

  Threshold for neglecting AO integrals:  1.00D-15


  Cartesian Coordinates (a.u.)
  ----------------------------

  Total number of coordinates:   12
   C      :     1  x   0.0000000000    2  y   0.0000000000    3  z   0.0000000000
   H1     :     4  x  -0.1185980000    5  y   0.0000000000    6  z   2.0362470000
   H2 / 1 :     7  x  -0.1185980000    8  y   1.7634410000    9  z  -1.0181240000
   H2 / 2 :    10  x  -0.1185980000   11  y  -1.7634410000   12  z  -1.0181240000


  Symmetry Coordinates
  --------------------

  Number of coordinates in each symmetry:     7    5

  Symmetry  A'  ( 1)

    1    C    x    1
    2    C    z    3
    3    H1   x    4
    4    H1   z    6
    5    H2   x    [  7  +   10 ]/2
    6    H2   y    [  8  -   11 ]/2
    7    H2   z    [  9  +   12 ]/2

  Symmetry  A"  ( 2)

    8    C    y    2
    9    H1   y    5
   10    H2   x    [  7  -   10 ]/2
   11    H2   y    [  8  +   11 ]/2
   12    H2   z    [  9  -   12 ]/2


   Interatomic separations (in Angstrom):
   --------------------------------------

             C           H1          H2 _1       H2 _2
            ------      ------      ------      ------
  C    :    0.000000
  H1   :    1.079362    0.000000
  H2 _1:    1.079361    1.866346    0.000000
  H2 _2:    1.079361    1.866346    1.866346    0.000000


  Max    interatomic separation is    1.8663 Angstrom (    3.5269 Bohr)
  between atoms    3 and    2, " H2 _1" and " H1   ".

  Min HX interatomic separation is    1.0794 Angstrom (    2.0397 Bohr)


  Bond distances (Angstrom):
  --------------------------

                  atom 1     atom 2       distance
                  ------     ------       --------
  bond distance:   H1         C           1.079362
  bond distance:   H2 _1      C           1.079361
  bond distance:   H2 _2      C           1.079361


  Bond angles (degrees):
  ----------------------

                  atom 1     atom 2     atom 3         angle
                  ------     ------     ------         -----
  bond angle:      H1         C          H2 _1       119.665
  bond angle:      H1         C          H2 _2       119.665
  bond angle:      H2 _1      C          H2 _2       119.665




 Principal moments of inertia (u*A**2) and principal axes
 --------------------------------------------------------

   IA       1.764763          0.000000    0.000000    1.000000
   IB       1.764765          0.000000    1.000000    0.000000
   IC       3.510504          1.000000    0.000000   -0.000000


 Rotational constants
 --------------------

               A                   B                   C

         286372.1414         286371.8446         143961.9493 MHz
            9.552346            9.552337            4.802054 cm-1


@  Nuclear repulsion energy :    9.675446789642 Hartree


  Symmetry Orbitals
  -----------------

  Number of orbitals in each symmetry:          60   32


  Symmetry  A' ( 1)

    1      C       1s         1
    2      C       1s         2
    3      C       1s         3
    4      C       1s         4
    5      C       1s         5
    6      C       1s         6
    7      C       1s         7
    8      C       1s         8
    9      C       1s         9
   10      C       1s        10
   11      C       1s        11
   12      C       1s        12
   13      C       2px       13
   14      C       2pz       15
   15      C       2px       16
   16      C       2pz       18
   17      C       2px       19
   18      C       2pz       21
   19      C       3d0       24
   20      C       3d1+      25
   21      C       3d2+      26
   22      C       3d0       29
   23      C       3d1+      30
   24      C       3d2+      31
   25      C       4f0       35
   26      C       4f1+      36
   27      C       4f2+      37
   28      C       4f3+      38
   29      H1      1s        39
   30      H1      1s        40
   31      H1      1s        41
   32      H1      1s        42
   33      H1      1s        43
   34      H1      1s        44
   35      H1      1s        45
   36      H1      2px       46
   37      H1      2pz       48
   38      H1      2px       49
   39      H1      2pz       51
   40      H1      3d0       54
   41      H1      3d1+      55
   42      H1      3d2+      56
   43      H2      1s        57 +   58
   44      H2      1s        59 +   60
   45      H2      1s        61 +   62
   46      H2      1s        63 +   64
   47      H2      1s        65 +   66
   48      H2      1s        67 +   68
   49      H2      1s        69 +   70
   50      H2      2px       71 +   72
   51      H2      2py       73 -   74
   52      H2      2pz       75 +   76
   53      H2      2px       77 +   78
   54      H2      2py       79 -   80
   55      H2      2pz       81 +   82
   56      H2      3d2-      83 -   84
   57      H2      3d1-      85 -   86
   58      H2      3d0       87 +   88
   59      H2      3d1+      89 +   90
   60      H2      3d2+      91 +   92


  Symmetry  A" ( 2)

   61      C       2py       14
   62      C       2py       17
   63      C       2py       20
   64      C       3d2-      22
   65      C       3d1-      23
   66      C       3d2-      27
   67      C       3d1-      28
   68      C       4f3-      32
   69      C       4f2-      33
   70      C       4f1-      34
   71      H1      2py       47
   72      H1      2py       50
   73      H1      3d2-      52
   74      H1      3d1-      53
   75      H2      1s        57 -   58
   76      H2      1s        59 -   60
   77      H2      1s        61 -   62
   78      H2      1s        63 -   64
   79      H2      1s        65 -   66
   80      H2      1s        67 -   68
   81      H2      1s        69 -   70
   82      H2      2px       71 -   72
   83      H2      2py       73 +   74
   84      H2      2pz       75 -   76
   85      H2      2px       77 -   78
   86      H2      2py       79 +   80
   87      H2      2pz       81 -   82
   88      H2      3d2-      83 +   84
   89      H2      3d1-      85 +   86
   90      H2      3d0       87 -   88
   91      H2      3d1+      89 -   90
   92      H2      3d2+      91 -   92

  Symmetries of electric field:  A' (1)  A" (2)  A' (1)

  Symmetries of magnetic field:  A" (2)  A' (1)  A" (2)


                     .---------------------------------------.
                     | Starting in Integral Section (HERMIT) |
                     `---------------------------------------'



    *************************************************************************
    ****************** Output from HERMIT input processing ******************
    *************************************************************************


 Default print level:        1

 * Nuclear model: Point charge

 Calculation of one- and two-electron Hamiltonian integrals.

 The following one-electron property integrals are calculated as requested:
          - overlap integrals
          - Fermi contact integrals
            (Dirac delta function integrals)
          - spin-dipole integrals
            (electron spin - nuclear moment coupling)

 Center of mass  (bohr):     -0.023867852681      0.000000000000     -0.000000067083
 Operator center (bohr):      0.000000000000      0.000000000000      0.000000000000
 Gauge origin    (bohr):      0.000000000000      0.000000000000      0.000000000000
 Dipole origin   (bohr):      0.000000000000      0.000000000000      0.000000000000

 Integrals for all indirect spin-spin coupling and/or shielding tensors are calculated.


  Changes of defaults for ONEINP:
  -------------------------------

 One-electron RLM integrals calculated.
 Maximum L quantum number: 12
 All symmetries saved on file.

 Cavity center (center of mass):   -0.023868    0.000000   -0.000000


     ************************************************************************
     ************************** Output from HERINT **************************
     ************************************************************************

 >>>  Time used in RLMINT     is   0.15 seconds

 Threshold for neglecting two-electron integrals:  1.00D-15
 Number of two-electron integrals written:     3918122 ( 42.8% )
 Megabytes written:                             44.870

 >>>  Time used in TWOINT     is   0.56 seconds
 >>>> Total CPU  time used in HERMIT:   0.77 seconds
 >>>> Total wall time used in HERMIT:   0.78 seconds


                        .----------------------------------.
                        | End of Integral Section (HERMIT) |
                        `----------------------------------'



                   .--------------------------------------------.
                   | Starting in Wave Function Section (SIRIUS) |
                   `--------------------------------------------'


 *** Output from Huckel module :

     Using EWMO model:          F
     Using EHT  model:          T
     Number of Huckel orbitals each symmetry:    6    2

 Huckel EHT eigenvalues for symmetry :  1
          -11.371425      -1.112927      -0.626734      -0.407683      -0.233795
           -0.195951

 Huckel EHT eigenvalues for symmetry :  2
           -0.626734      -0.195951

 **********************************************************************
 *SIRIUS* a direct, restricted step, second order MCSCF program       *
 **********************************************************************

 
     Date and time (Linux)  : Sun Sep  8 20:50:08 2013
     Host name              : lpqlx131.ups-tlse.fr                    

 Title lines from ".mol" input file:
     Calculation of ESR hyperfine couplings with solvent for the CH3 radical 
                                                                             

 Print level on unit LUPRI =   2 is   0
 Print level on unit LUW4  =   2 is   5

@    MC-SCF optimization.

@    Multi-configurational response calculation.
@              Type: complete active space calculation (CAS).

@    This is a combination run starting with
@              a restricted, one open shell Hartree-Fock calculation


 Initial molecular orbitals are obtained according to
 ".MOSTART EHT   " input option

@    QM part is embedded in an environment :

@         SOLVATION MODEL: molecule is in a spherical cavity in a dielectric medium,
@                dielectric constant =    1.700000
@               cavity radius (bohr) =    4.119000
@                        max l value =          12

     Wave function specification
     ============================
@    For the wave function of type :      >>> MC-SCF <<<
@    Number of closed shell electrons           2
@    Number of electrons in active shells       7
@    Total charge of the molecule               0

@    Spin multiplicity and 2 M_S                2         1
     Total number of symmetries                 2
@    Reference state symmetry                   1

     Orbital specifications
     ======================
     Abelian symmetry species          All |    1    2
                                       --- |  ---  ---
@    Inactive orbitals                   1 |    1    0
@    Active orbitals                     7 |    5    2
     Secondary orbitals                 84 |   54   30
     Total number of orbitals           92 |   60   32
     Number of basis functions          92 |   60   32

      -- Initial occupation of symmetries is determined from user input.                      
      -- Initial occupation of symmetries is :
@    Occupied SCF orbitals               4 |    3    1

@    plus one open shell SCF orbital of symmetry   1

     Optimization information
     ========================
@    Number of determinants                 625
@    Number of orbital rotations            389
     ------------------------------------------
@    Total number of variables             1014

     Maximum number of macro iterations      25
     Maximum number of micro iterations     600
     Threshold for MCSCF gradient      1.00D-08
     Number of initial trial vectors          1
     Number of initial CI iterations          3
     Number of simultaneous trial vectors     1

@    This calculation converges to the lowest state for the specified symmetry and spin species.

     Maximum number of NEO/NR iterations  24


 >>>>> DIIS optimization of Hartree-Fock <<<<<

 C1-DIIS algorithm; max error vectors =   10

 Iter      Total energy       Solvation energy    Error norm    Delta(E)
 -----------------------------------------------------------------------------
     (Precalculated two-electron integrals are transformed to P-supermatrix elements.
      Threshold for discarding integrals :  1.00D-15 )
 >>>  Time used in FORMSUP    is   0.17 seconds
@  1  -39.4067014936     -8.643809320254E-06    2.28750D+01   -3.94D+01
      Virial theorem: -V/T =      2.008583
@      MULPOP  C     -0.62;  H1     0.07;  H2 _1  0.28;  H2 _2  0.28; 
 -----------------------------------------------------------------------------
@  2  -39.5560324111     -3.917505669001E-04    4.48315D-01   -1.49D-01
      Virial theorem: -V/T =      1.980503
@      MULPOP  C     -0.78;  H1     0.12;  H2 _1  0.33;  H2 _2  0.33; 
 -----------------------------------------------------------------------------
@  3  -39.5712077503     -2.965757594597E-04    2.04704D-01   -1.52D-02
      Virial theorem: -V/T =      2.003831
@      MULPOP  C     -0.61;  H1     0.04;  H2 _1  0.28;  H2 _2  0.28; 
 -----------------------------------------------------------------------------
@  4  -39.5739908720     -3.703727804925E-04    2.51291D-02   -2.78D-03
      Virial theorem: -V/T =      1.998331
@      MULPOP  C     -0.66;  H1     0.06;  H2 _1  0.30;  H2 _2  0.30; 
 -----------------------------------------------------------------------------
@  5  -39.5740791589     -3.893568813464E-04    2.93667D-03   -8.83D-05
      Virial theorem: -V/T =      1.998116
@      MULPOP  C     -0.67;  H1     0.07;  H2 _1  0.30;  H2 _2  0.30; 
 -----------------------------------------------------------------------------
@  6  -39.5740808068     -3.913805178638E-04    5.38138D-04   -1.65D-06
      Virial theorem: -V/T =      1.998167
@      MULPOP  C     -0.67;  H1     0.07;  H2 _1  0.30;  H2 _2  0.30; 
 -----------------------------------------------------------------------------
@  7  -39.5740808619     -3.914723654934E-04    1.61832D-04   -5.50D-08
      Virial theorem: -V/T =      1.998183
@      MULPOP  C     -0.67;  H1     0.07;  H2 _1  0.30;  H2 _2  0.30; 
 -----------------------------------------------------------------------------
@  8  -39.5740808664     -3.915316754607E-04    3.88551D-05   -4.59D-09
      Virial theorem: -V/T =      1.998185
@      MULPOP  C     -0.67;  H1     0.07;  H2 _1  0.30;  H2 _2  0.30; 
 -----------------------------------------------------------------------------
@  9  -39.5740808669     -3.915582961820E-04    1.30701D-05   -4.39D-10
      Virial theorem: -V/T =      1.998185
@      MULPOP  C     -0.67;  H1     0.07;  H2 _1  0.30;  H2 _2  0.30; 
 -----------------------------------------------------------------------------
@ 10  -39.5740808669     -3.915642044393E-04    4.86329D-06   -6.46D-11

@ *** DIIS converged in  10 iterations !
@     Converged SCF energy, gradient:    -39.574080866946    4.86D-06
    - total time used in SIRFCK :              0.00 seconds

 >>> Writing SIRIFC interface file <<<

 >>>> CPU and wall time for SCF :       0.586       0.592


        SIRIUS MCSCF optimization (SIROPT)
 ================================================



 <<<<< Output from SIRIUS CI module (CICTL) >>>>>




 Integral transformation: Total CPU and WALL times (sec)       0.478       0.484

 (CIST1)  4 lowest diagonal elements:

 Element no. Config.no.    Active energy      Total energy

         1 :        226    -13.9485616084    -39.5736893027
         2 :        227    -13.6640381702    -39.2891658646
         3 :        246    -13.6617068498    -39.2868345442
         4 :        230    -13.5936454405    -39.2187731349


 Convergence threshold for CI optimization :     0.00000001



 *** Reached maximum number of CI iterations:    3
              1 CI roots are not converged.


 CI energies and residuals:
    1      -39.578418481354298       2.83D-03


 Final CI energy:      -39.578418481354298

   <<< OUTPUT FROM SIRCNO >>>    Keyword = FD+NO 


 Occupations of CAS natural orbitals:

 Symmetry  1

   1.997852313   1.997674127   1.000005482   0.002405229   0.002194700

 Symmetry  2

   1.997673809   0.002194340


 <<< MACRO ITERATION  1 >>>
 --------------------------

 Integral transformation: Total CPU and WALL times (sec)       0.796       0.806

 Total MCSCF energy       :           -39.578743010963450  (MACRO    1)

 - Nuclear repulsion      :             9.675446789641613
 - Inactive energy        :           -35.300574484022107
 - Active energy          :           -13.953290786973820
 - Dielec. solvation ener.:            -0.000324529609134

 Norm of total gradient   :             0.029089254840
 -    of CI gradient      :             0.006342523564
 -    of orbital gradient :             0.028389384318
      Virial theorem: -V/T =      2.002067
@      MULPOP  C     -0.14;  H1     0.05;  H2 _1  0.05;  H2 _2  0.05; 

 Residual norm when dim(red L) =  11
 NEO root     CSF        orbital          total
    1     0.00274286     0.00056571     0.00280059 converged

 (NEONEX) NEO vector is converged.

   <<< OUTPUT FROM SIRCNO >>>    Keyword = FD+NO 


 Occupations of CAS natural orbitals:

 Symmetry  1

   1.988321079   1.987428550   1.000006191   0.013011724   0.011901843

 Symmetry  2

   1.987431208   0.011899405


 <<< MACRO ITERATION  2 >>>
 --------------------------

 Integral transformation: Total CPU and WALL times (sec)       0.811       0.820

 Total MCSCF energy       :           -39.599836034953015  (MACRO    2)

 - Nuclear repulsion      :             9.675446789641613
 - Inactive energy        :           -35.301407401832797
 - Active energy          :           -13.973662761173923
 - Dielec. solvation ener.:            -0.000212661587906

 Norm of total gradient   :             0.084219958687
 -    of CI gradient      :             0.060568705077
 -    of orbital gradient :             0.058518658619
      Virial theorem: -V/T =      2.002148
@      MULPOP  C     -0.04;  H1     0.01;  H2 _1  0.01;  H2 _2  0.01; 

 Residual norm when dim(red L) =   8
 NEO root     CSF        orbital          total
    1     0.01289638     0.00184714     0.01302799 converged

 (NEONEX) NEO vector is converged.

   <<< OUTPUT FROM SIRCNO >>>    Keyword = FD+NO 


 Occupations of CAS natural orbitals:

 Symmetry  1

   1.976166654   1.970248888   0.999973036   0.030195054   0.026583300

 Symmetry  2

   1.970250895   0.026582175


 <<< MACRO ITERATION  3 >>>
 --------------------------

 Integral transformation: Total CPU and WALL times (sec)       0.793       0.801

 Total MCSCF energy       :           -39.625525406987663  (MACRO    3)

 - Nuclear repulsion      :             9.675446789641613
 - Inactive energy        :           -35.301058141212295
 - Active energy          :           -13.999703890514439
 - Dielec. solvation ener.:            -0.000210164902544

 Norm of total gradient   :             0.118085732543
 -    of CI gradient      :             0.112798837949
 -    of orbital gradient :             0.034937979157
      Virial theorem: -V/T =      1.999206
@      MULPOP  C     -0.08;  H1     0.03;  H2 _1  0.03;  H2 _2  0.03; 

 Residual norm when dim(red L) =   7
 NEO root     CSF        orbital          total
    1     0.01878303     0.00565252     0.01961513 converged

 (NEONEX) NEO vector is converged.

   <<< OUTPUT FROM SIRCNO >>>    Keyword = FD+NO 


 Occupations of CAS natural orbitals:

 Symmetry  1

   1.980515067   1.977230768   0.999987286   0.024533011   0.020250371

 Symmetry  2

   1.977231627   0.020251871


 <<< MACRO ITERATION  4 >>>
 --------------------------

 Integral transformation: Total CPU and WALL times (sec)       0.794       0.803

 Total MCSCF energy       :           -39.633104315623157  (MACRO    4)

 - Nuclear repulsion      :             9.675446789641613
 - Inactive energy        :           -35.301373478512069
 - Active energy          :           -14.006902651131821
 - Dielec. solvation ener.:            -0.000274975620881

 Norm of total gradient   :             0.043409970796
 -    of CI gradient      :             0.040174253659
 -    of orbital gradient :             0.016445513293
      Virial theorem: -V/T =      1.998613
@      MULPOP  C     -0.17;  H1     0.06;  H2 _1  0.06;  H2 _2  0.06; 

 Residual norm when dim(red L) =   9
 NEO root     CSF        orbital          total
    1     0.00096504     0.00022157     0.00099015 converged

 (NEONEX) NEO vector is converged.

   <<< OUTPUT FROM SIRCNO >>>    Keyword = FD+NO 


 Occupations of CAS natural orbitals:

 Symmetry  1

   1.981806019   1.978338874   0.999992086   0.023537378   0.018993483

 Symmetry  2

   1.978337596   0.018994563


 <<< MACRO ITERATION  5 >>>
 --------------------------

 Integral transformation: Total CPU and WALL times (sec)       0.784       0.791

 Total MCSCF energy       :           -39.633366375457172  (MACRO    5)

 - Nuclear repulsion      :             9.675446789641613
 - Inactive energy        :           -35.301351262454389
 - Active energy          :           -14.007167465543917
 - Dielec. solvation ener.:            -0.000294437100482

 Norm of total gradient   :             0.001186521409
 -    of CI gradient      :             0.001068046062
 -    of orbital gradient :             0.000516827498
      Virial theorem: -V/T =      1.998806
@      MULPOP  C     -0.20;  H1     0.07;  H2 _1  0.07;  H2 _2  0.07; 

 Residual norm when dim(red L) =  17
 NEO root     CSF        orbital          total
    1     0.00000483     0.00000106     0.00000494 converged

 (NEONEX) NEO vector is converged.

   <<< OUTPUT FROM SIRCNO >>>    Keyword = FD+NO 


 Occupations of CAS natural orbitals:

 Symmetry  1

   1.981794327   1.978344632   0.999994338   0.023538857   0.018991597

 Symmetry  2

   1.978344612   0.018991636


 <<< MACRO ITERATION  6 >>>
 --------------------------

 Integral transformation: Total CPU and WALL times (sec)       0.806       0.815

 Total MCSCF energy       :           -39.633367086945753  (MACRO    6)

 - Nuclear repulsion      :             9.675446789641613
 - Inactive energy        :           -35.301346625737160
 - Active energy          :           -14.007173021578158
 - Dielec. solvation ener.:            -0.000294229272042

 Norm of total gradient   :             0.000008645694
 -    of CI gradient      :             0.000008171287
 -    of orbital gradient :             0.000002824552
      Virial theorem: -V/T =      1.998815
@      MULPOP  C     -0.20;  H1     0.07;  H2 _1  0.07;  H2 _2  0.07; 

 Residual norm when dim(red L) =  20
 NEO root     CSF        orbital          total
    1     0.00000001     0.00000001     0.00000001 converged

 (NEONEX) NEO vector is converged.

   <<< OUTPUT FROM SIRCNO >>>    Keyword = FD+NO 


 Occupations of CAS natural orbitals:

 Symmetry  1

   1.981794647   1.978344923   0.999994338   0.023538564   0.018991300

 Symmetry  2

   1.978344924   0.018991305


 <<< MACRO ITERATION  7 >>>
 --------------------------

 Integral transformation: Total CPU and WALL times (sec)       0.790       0.798

 Total MCSCF energy       :           -39.633367086958621  (MACRO    7)

 - Nuclear repulsion      :             9.675446789641613
 - Inactive energy        :           -35.301346630196178
 - Active energy          :           -14.007173014300120
 - Dielec. solvation ener.:            -0.000294232103935

 Norm of total gradient   :             0.000000008186
 -    of CI gradient      :             0.000000005262
 -    of orbital gradient :             0.000000006271
      Virial theorem: -V/T =      1.998815
@      MULPOP  C     -0.20;  H1     0.07;  H2 _1  0.07;  H2 _2  0.07; 

 (SIRSTP) Close to convergence, ratio set to one.
 Energy difference; actual and predicted:   -1.28679D-11   -1.30806D-11

 (SIRSTP) Close to convergence, ratio set to one.
 Energy difference; actual and predicted:    9.83742D-01
 Close to convergence, ratio set to one.

 *** Optimization control: MCSCF converged ***
     Number of macro iterations used            7
     Number of micro iterations used           61
     Total number of CPU seconds used        20.10

 >>>> CPU and wall time for MCSCF :      20.104      20.719


                     .----------------------------------------.
                     | >>> SIRIUS OPTIMIZATION STATISTICS <<< |
                     `----------------------------------------'


 
     Date and time (Linux)  : Sun Sep  8 20:50:29 2013
     Host name              : lpqlx131.ups-tlse.fr                    


  ITER ITMIC     EMCSCF           GRDNRM        RATIO      STPLNG
 ---------------------------------------------------------------------
    1   10    -39.578743010963   0.0290892548  0.000000   0.7135868715
    2    6    -39.599836034953   0.0842199587  0.882186   0.7562346888
    3    5    -39.625525406988   0.1180857325  0.708739   0.4581978488
    4    7    -39.633104315623   0.0434099708  1.028605   0.0678055337
    5   15    -39.633366375457   0.0011865214  1.014763   0.0054616199
    6   18    -39.633367086946   0.0000086457  1.001032   0.0000153422
    7    0    -39.633367086959   0.0000000082  1.000000   0.0000000000


  ITER  INDGCM  GCIMAX      GCINRM     INDGOM  GOBMAX      GOBNRM      GRDNRM
 ------------------------------------------------------------------------------
    1    231   -0.001451    0.006343     63    0.009066    0.028389    0.029089
    2    267    0.010432    0.060569    280   -0.019982    0.058519    0.084220
    3    351    0.037523    0.112799    361    0.014904    0.034938    0.118086
    4    441    0.009647    0.040174    137    0.005027    0.016446    0.043410
    5    625   -0.000544    0.001068    150   -0.000124    0.000517    0.001187
    6    436   -0.000002    0.000008    186   -0.000001    0.000003    0.000009
    7    625   -0.000000    0.000000     46   -0.000000    0.000000    0.000000


  ITER ITMIC NCLIN NOLIN   TIMMAC    TIMITR    TIMMIC    TIMLIN    TIMMIC/ITMIC
 ------------------------------------------------------------------------------

    1    10     6     4      2.92      0.80      1.94      1.90      0.19
    2     6     4     3      2.34      0.81      1.35      1.31      0.23
    3     5     3     3      2.18      0.79      1.21      1.17      0.24
    4     7     4     4      2.58      0.79      1.61      1.57      0.23
    5    15     9     7      4.06      0.78      3.10      3.06      0.21
    6    18    12     7      4.51      0.81      3.52      3.48      0.20
    7     0     0     0      0.97      0.79      0.00      0.00


 ITER         EMY                 EACTIV              EMCSCF

    1    -35.300574484022    -13.953290786974    -39.578743010963
    2    -35.301407401833    -13.973662761174    -39.599836034953
    3    -35.301058141212    -13.999703890514    -39.625525406988
    4    -35.301373478512    -14.006902651132    -39.633104315623
    5    -35.301351262454    -14.007167465544    -39.633366375457
    6    -35.301346625737    -14.007173021578    -39.633367086946
    7    -35.301346630196    -14.007173014300    -39.633367086959


 ITER         DEPRED              DEACT               RATIO

    1      0.000000000000      0.000000000000      0.000000000000
    2     -0.023909950648     -0.021093023990      0.882186011181
    3     -0.036246581703     -0.025689372035      0.708739164578
    4     -0.007368140619     -0.007578908635      1.028605319476
    5     -0.000258247411     -0.000262059834      1.014762675238
    6     -0.000000710755     -0.000000711489      1.001032445893
    7     -0.000000000013     -0.000000000013      1.000000000000


 ITER    BETA           GAMMA             STPLNG              RTRUST

    1      2.36341274  1.00000000      0.713586871510      0.700000000000
    2      1.43514991  1.00000000      0.756234688779      0.700000000000
    3      0.20000000  1.00000000      0.458197848849      0.700000000000
    4      0.20000000  1.00000000      0.067805533739      0.700000000000
    5      0.20000000  1.00000000      0.005461619906      0.700000000000
    6      0.20000000  1.00000000      0.000015342227      0.700000000000
    7      0.00000000  0.00000000      0.000000000000      0.700000000000


 Reduced L root no.  1
 ITER         EVAL              EVEC(1)           EVEC(2)           EVEC(3)
 ----------------------------------------------------------------------------
    1   -0.069482020406   -0.510025991021    0.839471880320   -0.096804632651
    2   -0.068557350997   -0.677612207392    0.026534112371    0.712912007701
    3   -0.000584542373    0.995827357110   -0.005205327041   -0.085709377640
    4   -0.000020655994    0.999908060873   -0.001479996125   -0.011482917119
    5   -0.000000056860    0.999999403415   -0.000110382131   -0.000983901993
    6   -0.000000000001    0.999999999995   -0.000000467839   -0.000002556516
    7    0.000000000000    0.000000000000    0.000000000000    0.000000000000


                       .-----------------------------------.
                       | >>> Final results from SIRIUS <<< |
                       `-----------------------------------'


@    Spin multiplicity:           2
@    Spatial symmetry:            1
@    Total charge of molecule:    0

     SOLVATION MODEL: molecule is in a cavity in a dielectric medium,
          dielectric constant =    1.700000
          static diel. const. =    1.700000
          cavity dimensions   =    4.119000    4.119000    4.119000
          max l value         =          12
@    State number:                1

@    Final MCSCF energy:          -39.633367086959                 
@    Nuclear repulsion:             9.675446789642
@    Electronic energy:           -49.308519644496
@    Solvation  energy:            -0.000294232104

@    Final gradient norm:           0.000000008186

 
     Date and time (Linux)  : Sun Sep  8 20:50:29 2013
     Host name              : lpqlx131.ups-tlse.fr                    

 Occupancies of natural orbitals
 -------------------------------

 Symmetry  1 -- Total occupation in this symmetry is   7.002663772

   2.000000000   1.981794647   1.978344923   0.999994338   0.023538564
   0.018991300

 Symmetry  2 -- Total occupation in this symmetry is   1.997336228

   1.978344924   0.018991305

 (Only coefficients >0.0100 are printed.)

 Molecular orbitals for symmetry species  1
 ------------------------------------------

    Orbital         2        3        4        5        6        7        8
   6  C  :1s    -0.0149  -0.0000  -0.0011   0.0189  -0.0000   0.0004  -0.0000
   7  C  :1s    -0.0462  -0.0000  -0.0035   0.0612  -0.0000   0.0004  -0.0000
   8  C  :1s    -0.1035  -0.0000  -0.0079   0.1324  -0.0000   0.0042  -0.0000
   9  C  :1s    -0.1420  -0.0000  -0.0109   0.2210  -0.0000   0.0033  -0.0000
  10  C  :1s     0.1209   0.0000   0.0079  -0.3681   0.0000  -0.1005   0.0000
  11  C  :1s     0.4100   0.0000   0.0434  -0.9943   0.0000   0.2881  -0.0000
  12  C  :1s     0.1758   0.0000   0.0522  -0.0902   0.0000   3.8278  -0.0000
  13  C  :2px   -0.0318  -0.0000   0.8955   0.1195  -0.0000   0.0200  -0.0000
  14  C  :2pz   -0.0000   0.6884  -0.0000  -0.0000  -1.5274   0.0000  -0.1181
  15  C  :2px    0.0042   0.0000   0.0072  -0.0040   0.0000  -0.0467   0.0000
  16  C  :2pz    0.0000  -0.0566   0.0000  -0.0000  -0.0562  -0.0000   0.0411
  17  C  :2px    0.0056   0.0000   0.0833  -0.0281   0.0000  -0.1257   0.0000
  18  C  :2pz    0.0000  -0.1156   0.0000   0.0000   0.4880  -0.0000   1.5396
  19  C  :3d0    0.0052   0.0149  -0.0008  -0.0016  -0.0425   0.0123   0.0120
  21  C  :3d2+  -0.0091   0.0086   0.0015   0.0027  -0.0245  -0.0212   0.0069
  22  C  :3d0    0.0026   0.0176  -0.0021   0.0197  -0.1571   0.1801   0.0646
  23  C  :3d1+   0.0000  -0.0029  -0.0000   0.0000   0.0119   0.0000  -0.0251
  24  C  :3d2+  -0.0045   0.0102   0.0036  -0.0342  -0.0907  -0.3120   0.0373
  25  C  :4f0    0.0038   0.0018   0.0001  -0.0208  -0.0066   0.0407   0.0045
  27  C  :4f2+   0.0030  -0.0023   0.0001  -0.0161   0.0085   0.0315  -0.0058
  32  H1 :1s     0.0184   0.0337  -0.0013   0.0330   0.0397   0.0194   0.0308
  33  H1 :1s     0.0778   0.1408  -0.0052   0.2020   0.2673   0.0263   0.0075
  34  H1 :1s     0.1344   0.2659  -0.0132   0.4278   0.7896  -0.0944   0.6603
  35  H1 :1s     0.0218   0.1011  -0.0068   0.0735   0.1426  -1.5806  -3.0693
  37  H1 :2pz   -0.0090  -0.0128   0.0008   0.0108   0.0331  -0.0100  -0.0282
  38  H1 :2px    0.0004   0.0012   0.0162   0.0016   0.0079  -0.0151  -0.0136
  39  H1 :2pz   -0.0151  -0.0127   0.0012  -0.0213  -0.0808   0.3779   0.2674
  40  H1 :3d0    0.0028   0.0041  -0.0005  -0.0093  -0.0220  -0.0245  -0.0095
  46  H2 :1s     0.0184  -0.0168  -0.0013   0.0330  -0.0198   0.0194  -0.0154
  47  H2 :1s     0.0778  -0.0704  -0.0052   0.2020  -0.1337   0.0263  -0.0037
  48  H2 :1s     0.1344  -0.1330  -0.0132   0.4278  -0.3948  -0.0944  -0.3302
  49  H2 :1s     0.0218  -0.0505  -0.0068   0.0735  -0.0713  -1.5806   1.5347
  51  H2 :2py   -0.0078   0.0075   0.0007   0.0094  -0.0140  -0.0087   0.0175
  53  H2 :2px    0.0004  -0.0006   0.0162   0.0016  -0.0040  -0.0151   0.0068
  54  H2 :2py   -0.0130   0.0099   0.0010  -0.0184   0.0334   0.3273  -0.1652
  55  H2 :2pz    0.0075   0.0043  -0.0006   0.0106  -0.0229  -0.1889  -0.0187
  57  H2 :3d1-  -0.0020   0.0006   0.0003   0.0079  -0.0078   0.0166  -0.0014
  60  H2 :3d2+  -0.0020   0.0022   0.0004   0.0047  -0.0075   0.0184  -0.0051

 Molecular orbitals for symmetry species  2
 ------------------------------------------

    Orbital         1        2        3        4
   1  C  :2py    0.6884  -1.5274   0.1181  -0.3073
   2  C  :2py   -0.0566  -0.0562  -0.0411   0.8606
   3  C  :2py   -0.1156   0.4880  -1.5396   3.4743
   5  C  :3d1-  -0.0172   0.0491   0.0139   0.0030
   6  C  :3d2-  -0.0029   0.0119   0.0251  -0.0856
   7  C  :3d1-  -0.0203   0.1814   0.0746  -0.7306
   8  C  :4f3-  -0.0028   0.0104   0.0071  -0.0577
   9  C  :4f2-   0.0004  -0.0037   0.0004   0.0135
  10  C  :4f1-   0.0007  -0.0027  -0.0018   0.0149
  11  H1 :2py    0.0045   0.0007  -0.0121   0.0136
  12  H1 :2py    0.0100  -0.0036   0.1140   0.0873
  18  H2 :1s     0.0292   0.0344  -0.0267  -0.0154
  19  H2 :1s     0.1220   0.2315  -0.0065   0.0322
  20  H2 :1s     0.2303   0.6838  -0.5719  -1.7549
  21  H2 :1s     0.0875   0.1235   2.6581  -1.9526
  23  H2 :2py   -0.0084   0.0250   0.0181   0.0204
  24  H2 :2pz    0.0075  -0.0140  -0.0175  -0.0039
  25  H2 :2px    0.0010   0.0069   0.0118  -0.0314
  26  H2 :2py   -0.0070  -0.0615  -0.1721   0.5242
  27  H2 :2pz    0.0099   0.0334   0.1652  -0.2522
  29  H2 :3d1-  -0.0033   0.0150  -0.0068   0.0355
  30  H2 :3d0    0.0003   0.0022   0.0013   0.0139
  32  H2 :3d2+  -0.0018   0.0117  -0.0051   0.0249

 Printout of CI-coefficients abs greater than 0.05000 for root  1
 *** NOTE: this root is the reference state ***


  Printout of coefficients in interval  0.3162E+00 to 0.1000E+01
  ==============================================================

 Coefficient of determinant       226 is      0.98319298  9.83192984E-01
 alpha-string:  1  2  3        6
  beta-string:  1  2           6


  Printout of coefficients in interval  0.1000E+00 to 0.3162E+00
  ==============================================================
   ( no coefficients )


  Printout of coefficients in interval  0.5000E-01 to 0.1000E+00
  ==============================================================

 Coefficient of determinant       267 is     -0.05115367 -5.11536715E-02
 alpha-string:  1  2     4     6
  beta-string:     2  3        6

 Coefficient of determinant       351 is      0.06081472  6.08147175E-02
 alpha-string:  1     3     5  6
  beta-string:  1           5  6

 Coefficient of determinant       436 is     -0.06081477 -6.08147691E-02
 alpha-string:  1  2  3           7
  beta-string:  1  2              7

 Norm of printed part of CI vector ..      0.97668201

  Magnitude of CI coefficients
  ============================

  ( Ranges are relative to norm of vector :  1.00E+00 )

  10- 1 to 10- 0         1    0.96666844E+00    0.96666844E+00
  10- 2 to 10- 1        44    0.32459079E-01    0.99912752E+00
  10- 3 to 10- 2        88    0.82654594E-03    0.99995407E+00
  10- 4 to 10- 3       187    0.45481273E-04    0.99999955E+00
  10- 5 to 10- 4       161    0.44881566E-06    0.10000000E+01
  10- 6 to 10- 5        28    0.13843780E-08    0.10000000E+01
  10- 7 to 10- 6        10    0.17817199E-11    0.10000000E+01
  10- 8 to 10- 7        15    0.28013195E-13    0.10000000E+01
  10- 9 to 10- 8        28    0.56068924E-15    0.10000000E+01
  10-10 to 10- 9        44    0.86381474E-17    0.10000000E+01
  10-11 to 10-10        19    0.62365002E-19    0.10000000E+01
  Number of coefficients less than 10^-11 times norm is             0



 >>>> Total CPU  time used in SIRIUS :     20.73 seconds
 >>>> Total wall time used in SIRIUS :     21.36 seconds

 
     Date and time (Linux)  : Sun Sep  8 20:50:29 2013
     Host name              : lpqlx131.ups-tlse.fr                    


                     .---------------------------------------.
                     | End of Wave Function Section (SIRIUS) |
                     `---------------------------------------'



                 .------------------------------------------------.
                 | Starting in Dynamic Property Section (RESPONS) |
                 `------------------------------------------------'


 ------------------------------------------------------------------------------
  RESPONSE  -  an MCSCF, MC-srDFT, DFT, and SOPPA response property program
 ------------------------------------------------------------------------------


 <<<<<<<<<< OUTPUT FROM RESPONSE INPUT PROCESSING >>>>>>>>>>




 CHANGES OF DEFAULTS FOR RSPINP:
 -------------------------------


 ** CALCULATION OF TRIPLET RESPONSE PROPERTIES  **  TRPFLG = T  TRPLET = T

 Default : Using Fock type decoupling of the two-electron density matrix :
    Add DV*(FC+FV) instead of DV*FC to E[2] approximate orbital diagonal


 ********* ESRINP ********


 Changes of defaults under *ESR   :
 ----------------------------------


 ESR - hyperfine calculation carried out

   22 ESR CALC. : TRIPLET OP.  SYMMETRY NO:    1 AND LABEL:

          FC  C 01
          FC  H102
          FC  H203
          SD 001 y
          SD 002 y
          SD 003 y
          SD 004 y
          SD 005 y
          SD 006 x
          SD 006 z
          SD 007 x
          SD 007 z
          SD 008 x
          SD 008 z
          SD 009 x
          SD 009 z
          SD 010 x
          SD 010 z
          SD 011 x
          SD 011 z
          SD 012 x
          SD 012 z

   18 ESR CALC. : TRIPLET OP.  SYMMETRY NO:    2 AND LABEL:

          FC  H204
          SD 001 x
          SD 001 z
          SD 002 x
          SD 002 z
          SD 003 x
          SD 003 z
          SD 004 x
          SD 004 z
          SD 005 x
          SD 005 z
          SD 006 y
          SD 007 y
          SD 008 y
          SD 009 y
          SD 010 y
          SD 011 y
          SD 012 y

 Old direct access AO file found, SORTA skipped.

 Integral transformation: Total CPU and WALL times (sec)       0.808       0.817


 MCSCF energy         :      -39.633367086958621
 -- inactive part     :      -35.301346630196178
 --   active part     :      -14.007173014300120
 -- nuclear repulsion :        9.675446789641613


                        **********************************
                        *** MCSCF response calculation ***
                        **********************************



 Perturbation symmetry.     KSYMOP:       1
 Perturbation spin symmetry.TRPLET:       T
 Orbital variables.         KZWOPT:     389
 Configuration variables.   KZCONF:     625
 Total number of variables. KZVAR :    1014


 Output from RSPESR module
 -------------------------



 RSPLAN -- linear response calculation for symmetry  1
 RSPLAN -- operator label : TRIPLAGR



 <<<  SOLVING SETS OF LINEAR EQUATIONS FOR LINEAR RESPONSE PROPERTIES >>>

 Operator symmetry =  1; triplet =   T

RSPORT:    1 out of    2 new trial vectors linear dependent

 *** THE REQUESTED    1 SOLUTION VECTORS CONVERGED

 Convergence of RSP solution vectors, threshold = 1.00D-05
 ---------------------------------------------------------------
 (dimension of paired reduced space:   30)
 RSP solution vector no.    1; norm of residual   8.46D-06

 *** RSPCTL MICROITERATIONS CONVERGED

 *** Individual non-zero orbital contributions
 *** to the expectation value for property FC  C 01 :

     Active-active  1  1 in sym 1 :     0.04789312
     Active-active  2  1 in sym 1 :     0.00000000
     Active-active  3  1 in sym 1 :     0.00104835
     Active-active  4  1 in sym 1 :     1.08322363
     Active-active  5  1 in sym 1 :     0.00000000
     Active-active  1  2 in sym 1 :     0.00000000
     Active-active  2  2 in sym 1 :     0.00000000
     Active-active  3  2 in sym 1 :     0.00000000
     Active-active  4  2 in sym 1 :     0.00000000
     Active-active  5  2 in sym 1 :    -0.00000000
     Active-active  1  3 in sym 1 :     0.00104835
     Active-active  2  3 in sym 1 :     0.00000000
     Active-active  3  3 in sym 1 :     0.08782369
     Active-active  4  3 in sym 1 :    -0.00040614
     Active-active  5  3 in sym 1 :    -0.00000000
     Active-active  1  4 in sym 1 :     1.08322363
     Active-active  2  4 in sym 1 :     0.00000000
     Active-active  3  4 in sym 1 :    -0.00040614
     Active-active  4  4 in sym 1 :     0.06602101
     Active-active  5  4 in sym 1 :     0.00000000
     Active-active  1  5 in sym 1 :     0.00000000
     Active-active  2  5 in sym 1 :    -0.00000000
     Active-active  3  5 in sym 1 :    -0.00000000
     Active-active  4  5 in sym 1 :     0.00000000
     Active-active  5  5 in sym 1 :     0.00000000
     Active-active  1  1 in sym 2 :    -0.00000000
     Active-active  2  1 in sym 2 :    -0.00000000
     Active-active  1  2 in sym 2 :    -0.00000000
     Active-active  2  2 in sym 2 :     0.00000000

     FC  C 01 inactive part:     0.00000000
     FC  C 01 active part  :     2.36946952
     FC  C 01 total        :     2.36946952

TRIPLET OPERATOR: "FC  C 01" LAGRANGIAN: -1.516278 AVERAGE:  2.369470 TOTAL:  0.853192

 *** Individual non-zero orbital contributions
 *** to the expectation value for property FC  H102 :

     Active-active  1  1 in sym 1 :     0.00146428
     Active-active  2  1 in sym 1 :     0.00000000
     Active-active  3  1 in sym 1 :    -0.00002762
     Active-active  4  1 in sym 1 :    -0.03840975
     Active-active  5  1 in sym 1 :     0.00000011
     Active-active  1  2 in sym 1 :     0.00000000
     Active-active  2  2 in sym 1 :     0.00063006
     Active-active  3  2 in sym 1 :    -0.00000000
     Active-active  4  2 in sym 1 :    -0.00000020
     Active-active  5  2 in sym 1 :    -0.04141031
     Active-active  1  3 in sym 1 :    -0.00002762
     Active-active  2  3 in sym 1 :    -0.00000000
     Active-active  3  3 in sym 1 :     0.00199449
     Active-active  4  3 in sym 1 :    -0.00001241
     Active-active  5  3 in sym 1 :     0.00000000
     Active-active  1  4 in sym 1 :    -0.03840975
     Active-active  2  4 in sym 1 :    -0.00000020
     Active-active  3  4 in sym 1 :    -0.00001241
     Active-active  4  4 in sym 1 :     0.00271506
     Active-active  5  4 in sym 1 :    -0.00000000
     Active-active  1  5 in sym 1 :     0.00000011
     Active-active  2  5 in sym 1 :    -0.04141031
     Active-active  3  5 in sym 1 :     0.00000000
     Active-active  4  5 in sym 1 :    -0.00000000
     Active-active  5  5 in sym 1 :     0.00105760
     Active-active  1  1 in sym 2 :     0.00000000
     Active-active  2  1 in sym 2 :    -0.00000000
     Active-active  1  2 in sym 2 :    -0.00000000
     Active-active  2  2 in sym 2 :     0.00000000

     FC  H102 inactive part:     0.00000000
     FC  H102 active part  :    -0.15185888
     FC  H102 total        :    -0.15185888

TRIPLET OPERATOR: "FC  H102" LAGRANGIAN: -0.022566 AVERAGE: -0.151859 TOTAL: -0.174425

 *** Individual non-zero orbital contributions
 *** to the expectation value for property FC  H203 :

     Active-active  1  1 in sym 1 :     0.00292858
     Active-active  2  1 in sym 1 :    -0.00000000
     Active-active  3  1 in sym 1 :    -0.00005525
     Active-active  4  1 in sym 1 :    -0.07681961
     Active-active  5  1 in sym 1 :    -0.00000011
     Active-active  1  2 in sym 1 :    -0.00000000
     Active-active  2  2 in sym 1 :     0.00031503
     Active-active  3  2 in sym 1 :     0.00000000
     Active-active  4  2 in sym 1 :     0.00000020
     Active-active  5  2 in sym 1 :    -0.02070519
     Active-active  1  3 in sym 1 :    -0.00005525
     Active-active  2  3 in sym 1 :     0.00000000
     Active-active  3  3 in sym 1 :     0.00398898
     Active-active  4  3 in sym 1 :    -0.00002482
     Active-active  5  3 in sym 1 :    -0.00000000
     Active-active  1  4 in sym 1 :    -0.07681961
     Active-active  2  4 in sym 1 :     0.00000020
     Active-active  3  4 in sym 1 :    -0.00002482
     Active-active  4  4 in sym 1 :     0.00543008
     Active-active  5  4 in sym 1 :     0.00000000
     Active-active  1  5 in sym 1 :    -0.00000011
     Active-active  2  5 in sym 1 :    -0.02070519
     Active-active  3  5 in sym 1 :    -0.00000000
     Active-active  4  5 in sym 1 :     0.00000000
     Active-active  5  5 in sym 1 :     0.00052880
     Active-active  1  1 in sym 2 :     0.00094508
     Active-active  2  1 in sym 2 :    -0.06211551
     Active-active  1  2 in sym 2 :    -0.06211551
     Active-active  2  2 in sym 2 :     0.00158640

     FC  H203 inactive part:     0.00000000
     FC  H203 active part  :    -0.30371763
     FC  H203 total        :    -0.30371763

TRIPLET OPERATOR: "FC  H203" LAGRANGIAN: -0.045133 AVERAGE: -0.303718 TOTAL: -0.348850

 *** Individual non-zero orbital contributions
 *** to the expectation value for property SD 001 y :

     Active-active  1  1 in sym 1 :     0.00008921
     Active-active  2  1 in sym 1 :    -0.00000000
     Active-active  3  1 in sym 1 :     0.00001767
     Active-active  4  1 in sym 1 :    -0.00156197
     Active-active  5  1 in sym 1 :    -0.00000000
     Active-active  1  2 in sym 1 :    -0.00000000
     Active-active  2  2 in sym 1 :    -0.00015412
     Active-active  3  2 in sym 1 :     0.00000000
     Active-active  4  2 in sym 1 :     0.00000000
     Active-active  5  2 in sym 1 :    -0.01707151
     Active-active  1  3 in sym 1 :     0.00001767
     Active-active  2  3 in sym 1 :     0.00000000
     Active-active  3  3 in sym 1 :    -0.55559474
     Active-active  4  3 in sym 1 :    -0.00001606
     Active-active  5  3 in sym 1 :    -0.00000000
     Active-active  1  4 in sym 1 :    -0.00156197
     Active-active  2  4 in sym 1 :     0.00000000
     Active-active  3  4 in sym 1 :    -0.00001606
     Active-active  4  4 in sym 1 :    -0.00006638
     Active-active  5  4 in sym 1 :     0.00000000
     Active-active  1  5 in sym 1 :    -0.00000000
     Active-active  2  5 in sym 1 :    -0.01707151
     Active-active  3  5 in sym 1 :    -0.00000000
     Active-active  4  5 in sym 1 :     0.00000000
     Active-active  5  5 in sym 1 :    -0.00081886
     Active-active  1  1 in sym 2 :     0.00032299
     Active-active  2  1 in sym 2 :     0.03362388
     Active-active  1  2 in sym 2 :     0.03362388
     Active-active  2  2 in sym 2 :     0.00164043

     SD 001 y inactive part:     0.00000000
     SD 001 y active part  :    -0.52459747
     SD 001 y total        :    -0.52459747

TRIPLET OPERATOR: "SD 001 y" LAGRANGIAN: -0.020738 AVERAGE: -0.524597 TOTAL: -0.545335

 *** Individual non-zero orbital contributions
 *** to the expectation value for property SD 002 y :

     Active-active  1  1 in sym 1 :    -0.00016321
     Active-active  2  1 in sym 1 :    -0.00000000
     Active-active  3  1 in sym 1 :     0.00000085
     Active-active  4  1 in sym 1 :    -0.00352193
     Active-active  5  1 in sym 1 :     0.00000001
     Active-active  1  2 in sym 1 :    -0.00000000
     Active-active  2  2 in sym 1 :    -0.00003188
     Active-active  3  2 in sym 1 :    -0.00000000
     Active-active  4  2 in sym 1 :    -0.00000001
     Active-active  5  2 in sym 1 :    -0.00330418
     Active-active  1  3 in sym 1 :     0.00000085
     Active-active  2  3 in sym 1 :    -0.00000000
     Active-active  3  3 in sym 1 :    -0.06568588
     Active-active  4  3 in sym 1 :    -0.00000148
     Active-active  5  3 in sym 1 :     0.00000000
     Active-active  1  4 in sym 1 :    -0.00352193
     Active-active  2  4 in sym 1 :    -0.00000001
     Active-active  3  4 in sym 1 :    -0.00000148
     Active-active  4  4 in sym 1 :    -0.00003528
     Active-active  5  4 in sym 1 :     0.00000000
     Active-active  1  5 in sym 1 :     0.00000001
     Active-active  2  5 in sym 1 :    -0.00330418
     Active-active  3  5 in sym 1 :     0.00000000
     Active-active  4  5 in sym 1 :     0.00000000
     Active-active  5  5 in sym 1 :    -0.00004832
     Active-active  1  1 in sym 2 :    -0.00000323
     Active-active  2  1 in sym 2 :    -0.00054042
     Active-active  1  2 in sym 2 :    -0.00054042
     Active-active  2  2 in sym 2 :    -0.00002481

     SD 002 y inactive part:     0.00000000
     SD 002 y active part  :    -0.08072692
     SD 002 y total        :    -0.08072692

TRIPLET OPERATOR: "SD 002 y" LAGRANGIAN:  0.001683 AVERAGE: -0.080727 TOTAL: -0.079044

 *** Individual non-zero orbital contributions
 *** to the expectation value for property SD 003 y :

     Active-active  1  1 in sym 1 :    -0.00002245
     Active-active  2  1 in sym 1 :     0.00000000
     Active-active  3  1 in sym 1 :    -0.00013581
     Active-active  4  1 in sym 1 :    -0.00004165
     Active-active  5  1 in sym 1 :    -0.00000000
     Active-active  1  2 in sym 1 :     0.00000000
     Active-active  2  2 in sym 1 :    -0.00000623
     Active-active  3  2 in sym 1 :     0.00000000
     Active-active  4  2 in sym 1 :     0.00000000
     Active-active  5  2 in sym 1 :    -0.00059710
     Active-active  1  3 in sym 1 :    -0.00013581
     Active-active  2  3 in sym 1 :     0.00000000
     Active-active  3  3 in sym 1 :    -0.00986276
     Active-active  4  3 in sym 1 :     0.00002012
     Active-active  5  3 in sym 1 :     0.00000000
     Active-active  1  4 in sym 1 :    -0.00004165
     Active-active  2  4 in sym 1 :     0.00000000
     Active-active  3  4 in sym 1 :     0.00002012
     Active-active  4  4 in sym 1 :     0.00001494
     Active-active  5  4 in sym 1 :    -0.00000000
     Active-active  1  5 in sym 1 :    -0.00000000
     Active-active  2  5 in sym 1 :    -0.00059710
     Active-active  3  5 in sym 1 :     0.00000000
     Active-active  4  5 in sym 1 :    -0.00000000
     Active-active  5  5 in sym 1 :    -0.00001423
     Active-active  1  1 in sym 2 :    -0.00000928
     Active-active  2  1 in sym 2 :    -0.00089729
     Active-active  1  2 in sym 2 :    -0.00089729
     Active-active  2  2 in sym 2 :    -0.00001606

     SD 003 y inactive part:     0.00000000
     SD 003 y active part  :    -0.01321951
     SD 003 y total        :    -0.01321951

TRIPLET OPERATOR: "SD 003 y" LAGRANGIAN:  0.004329 AVERAGE: -0.013220 TOTAL: -0.008890

 *** Individual non-zero orbital contributions
 *** to the expectation value for property SD 004 y :

     Active-active  1  1 in sym 1 :     0.00044814
     Active-active  2  1 in sym 1 :    -0.00000000
     Active-active  3  1 in sym 1 :    -0.00001426
     Active-active  4  1 in sym 1 :     0.00726561
     Active-active  5  1 in sym 1 :     0.00000002
     Active-active  1  2 in sym 1 :    -0.00000000
     Active-active  2  2 in sym 1 :     0.00006816
     Active-active  3  2 in sym 1 :     0.00000000
     Active-active  4  2 in sym 1 :    -0.00000001
     Active-active  5  2 in sym 1 :     0.00549116
     Active-active  1  3 in sym 1 :    -0.00001426
     Active-active  2  3 in sym 1 :     0.00000000
     Active-active  3  3 in sym 1 :     0.06067137
     Active-active  4  3 in sym 1 :     0.00000334
     Active-active  5  3 in sym 1 :     0.00000000
     Active-active  1  4 in sym 1 :     0.00726561
     Active-active  2  4 in sym 1 :    -0.00000001
     Active-active  3  4 in sym 1 :     0.00000334
     Active-active  4  4 in sym 1 :     0.00015256
     Active-active  5  4 in sym 1 :     0.00000000
     Active-active  1  5 in sym 1 :     0.00000002
     Active-active  2  5 in sym 1 :     0.00549116
     Active-active  3  5 in sym 1 :     0.00000000
     Active-active  4  5 in sym 1 :     0.00000000
     Active-active  5  5 in sym 1 :     0.00012336
     Active-active  1  1 in sym 2 :     0.00003977
     Active-active  2  1 in sym 2 :     0.00437834
     Active-active  1  2 in sym 2 :     0.00437834
     Active-active  2  2 in sym 2 :     0.00009786

     SD 004 y inactive part:     0.00000000
     SD 004 y active part  :     0.09584961
     SD 004 y total        :     0.09584961

TRIPLET OPERATOR: "SD 004 y" LAGRANGIAN: -0.025017 AVERAGE:  0.095850 TOTAL:  0.070833

 *** Individual non-zero orbital contributions
 *** to the expectation value for property SD 005 y :

     Active-active  1  1 in sym 1 :    -0.00044719
     Active-active  2  1 in sym 1 :    -0.00000000
     Active-active  3  1 in sym 1 :     0.00000922
     Active-active  4  1 in sym 1 :    -0.00826160
     Active-active  5  1 in sym 1 :    -0.00000000
     Active-active  1  2 in sym 1 :    -0.00000000
     Active-active  2  2 in sym 1 :    -0.00002215
     Active-active  3  2 in sym 1 :    -0.00000000
     Active-active  4  2 in sym 1 :     0.00000001
     Active-active  5  2 in sym 1 :    -0.00223120
     Active-active  1  3 in sym 1 :     0.00000922
     Active-active  2  3 in sym 1 :    -0.00000000
     Active-active  3  3 in sym 1 :    -0.11087627
     Active-active  4  3 in sym 1 :    -0.00000364
     Active-active  5  3 in sym 1 :    -0.00000000
     Active-active  1  4 in sym 1 :    -0.00826160
     Active-active  2  4 in sym 1 :     0.00000001
     Active-active  3  4 in sym 1 :    -0.00000364
     Active-active  4  4 in sym 1 :    -0.00012882
     Active-active  5  4 in sym 1 :     0.00000000
     Active-active  1  5 in sym 1 :    -0.00000000
     Active-active  2  5 in sym 1 :    -0.00223120
     Active-active  3  5 in sym 1 :    -0.00000000
     Active-active  4  5 in sym 1 :     0.00000000
     Active-active  5  5 in sym 1 :    -0.00008168
     Active-active  1  1 in sym 2 :    -0.00008070
     Active-active  2  1 in sym 2 :    -0.00790632
     Active-active  1  2 in sym 2 :    -0.00790632
     Active-active  2  2 in sym 2 :    -0.00013049

     SD 005 y inactive part:     0.00000000
     SD 005 y active part  :    -0.14855438
     SD 005 y total        :    -0.14855438

TRIPLET OPERATOR: "SD 005 y" LAGRANGIAN:  0.016387 AVERAGE: -0.148554 TOTAL: -0.132168

 *** Individual non-zero orbital contributions
 *** to the expectation value for property SD 006 x :

     Active-active  1  1 in sym 1 :    -0.00017842
[...]
     Active-active  5  1 in sym 1 :     0.00000001
     Active-active  1  2 in sym 1 :    -0.00000000
     Active-active  2  2 in sym 1 :    -0.00002951
     Active-active  3  2 in sym 1 :     0.00000000
     Active-active  4  2 in sym 1 :    -0.00000001
     Active-active  5  2 in sym 1 :    -0.00307140
     Active-active  1  3 in sym 1 :     0.00000894
     Active-active  2  3 in sym 1 :     0.00000000
     Active-active  3  3 in sym 1 :     0.00334296
     Active-active  4  3 in sym 1 :    -0.00000124
     Active-active  5  3 in sym 1 :     0.00000000
     Active-active  1  4 in sym 1 :    -0.00249580
     Active-active  2  4 in sym 1 :    -0.00000001
     Active-active  3  4 in sym 1 :    -0.00000124
     Active-active  4  4 in sym 1 :    -0.00007818
     Active-active  5  4 in sym 1 :     0.00000000
     Active-active  1  5 in sym 1 :     0.00000001
     Active-active  2  5 in sym 1 :    -0.00307140
     Active-active  3  5 in sym 1 :     0.00000000
     Active-active  4  5 in sym 1 :     0.00000000
     Active-active  5  5 in sym 1 :    -0.00005338
     Active-active  1  1 in sym 2 :    -0.00001904
     Active-active  2  1 in sym 2 :    -0.00094521
     Active-active  1  2 in sym 2 :    -0.00094521
     Active-active  2  2 in sym 2 :    -0.00004535

     SD 008 x inactive part:     0.00000000
     SD 008 x active part  :    -0.01008187
     SD 008 x total        :    -0.01008187

TRIPLET OPERATOR: "SD 008 x" LAGRANGIAN:  0.015556 AVERAGE: -0.010082 TOTAL:  0.005474

 *** Individual non-zero orbital contributions
 *** to the expectation value for property SD 008 z :

     Active-active  1  1 in sym 1 :    -0.00001296
     Active-active  2  1 in sym 1 :    -0.00000000
     Active-active  3  1 in sym 1 :    -0.00007841
     Active-active  4  1 in sym 1 :    -0.00002405
     Active-active  5  1 in sym 1 :     0.00000000
     Active-active  1  2 in sym 1 :    -0.00000000
     Active-active  2  2 in sym 1 :    -0.00000745
     Active-active  3  2 in sym 1 :    -0.00000000
     Active-active  4  2 in sym 1 :    -0.00000000
     Active-active  5  2 in sym 1 :    -0.00069999
     Active-active  1  3 in sym 1 :    -0.00007841
     Active-active  2  3 in sym 1 :    -0.00000000
     Active-active  3  3 in sym 1 :    -0.00569427
     Active-active  4  3 in sym 1 :     0.00001162
     Active-active  5  3 in sym 1 :    -0.00000000
     Active-active  1  4 in sym 1 :    -0.00002405
     Active-active  2  4 in sym 1 :    -0.00000000
     Active-active  3  4 in sym 1 :     0.00001162
     Active-active  4  4 in sym 1 :     0.00000862
     Active-active  5  4 in sym 1 :     0.00000000
     Active-active  1  5 in sym 1 :     0.00000000
     Active-active  2  5 in sym 1 :    -0.00069999
     Active-active  3  5 in sym 1 :    -0.00000000
     Active-active  4  5 in sym 1 :     0.00000000
     Active-active  5  5 in sym 1 :    -0.00001123
     Active-active  1  1 in sym 2 :    -0.00000150
     Active-active  2  1 in sym 2 :    -0.00016280
     Active-active  1  2 in sym 2 :    -0.00016280
     Active-active  2  2 in sym 2 :    -0.00000626

     SD 008 z inactive part: 0.00000000D+00
     SD 008 z active part  :-7.63228757D-03
     SD 008 z total        :-7.63228757D-03

TRIPLET OPERATOR: "SD 008 z" LAGRANGIAN:  0.002500 AVERAGE: -0.007632 TOTAL: -0.005133

 *** Individual non-zero orbital contributions
 *** to the expectation value for property SD 009 x :

     Active-active  1  1 in sym 1 :    -0.00001296
     Active-active  2  1 in sym 1 :    -0.00000000
     Active-active  3  1 in sym 1 :    -0.00007841
     Active-active  4  1 in sym 1 :    -0.00002405
     Active-active  5  1 in sym 1 :     0.00000000
     Active-active  1  2 in sym 1 :    -0.00000000
     Active-active  2  2 in sym 1 :    -0.00000745
     Active-active  3  2 in sym 1 :    -0.00000000
     Active-active  4  2 in sym 1 :    -0.00000000
     Active-active  5  2 in sym 1 :    -0.00069999
     Active-active  1  3 in sym 1 :    -0.00007841
     Active-active  2  3 in sym 1 :    -0.00000000
     Active-active  3  3 in sym 1 :    -0.00569427
     Active-active  4  3 in sym 1 :     0.00001162
     Active-active  5  3 in sym 1 :    -0.00000000
     Active-active  1  4 in sym 1 :    -0.00002405
     Active-active  2  4 in sym 1 :    -0.00000000
     Active-active  3  4 in sym 1 :     0.00001162
     Active-active  4  4 in sym 1 :     0.00000862
     Active-active  5  4 in sym 1 :     0.00000000
     Active-active  1  5 in sym 1 :     0.00000000
     Active-active  2  5 in sym 1 :    -0.00069999
     Active-active  3  5 in sym 1 :    -0.00000000
     Active-active  4  5 in sym 1 :     0.00000000
     Active-active  5  5 in sym 1 :    -0.00001123
     Active-active  1  1 in sym 2 :    -0.00000150
     Active-active  2  1 in sym 2 :    -0.00016280
     Active-active  1  2 in sym 2 :    -0.00016280
     Active-active  2  2 in sym 2 :    -0.00000626

     SD 009 x inactive part: 0.00000000D+00
     SD 009 x active part  :-7.63228757D-03
     SD 009 x total        :-7.63228757D-03

TRIPLET OPERATOR: "SD 009 x" LAGRANGIAN:  0.002500 AVERAGE: -0.007632 TOTAL: -0.005133

 *** Individual non-zero orbital contributions
 *** to the expectation value for property SD 009 z :

     Active-active  1  1 in sym 1 :     0.00035316
     Active-active  2  1 in sym 1 :     0.00000000
     Active-active  3  1 in sym 1 :    -0.00000979
     Active-active  4  1 in sym 1 :     0.00601773
     Active-active  5  1 in sym 1 :    -0.00000002
     Active-active  1  2 in sym 1 :     0.00000000
     Active-active  2  2 in sym 1 :     0.00006139
     Active-active  3  2 in sym 1 :    -0.00000000
     Active-active  4  2 in sym 1 :     0.00000002
     Active-active  5  2 in sym 1 :     0.00637557
     Active-active  1  3 in sym 1 :    -0.00000979
     Active-active  2  3 in sym 1 :    -0.00000000
     Active-active  3  3 in sym 1 :     0.06234293
     Active-active  4  3 in sym 1 :     0.00000272
     Active-active  5  3 in sym 1 :    -0.00000000
     Active-active  1  4 in sym 1 :     0.00601773
     Active-active  2  4 in sym 1 :     0.00000002
     Active-active  3  4 in sym 1 :     0.00000272
     Active-active  4  4 in sym 1 :     0.00011347
     Active-active  5  4 in sym 1 :    -0.00000000
     Active-active  1  5 in sym 1 :    -0.00000002
     Active-active  2  5 in sym 1 :     0.00637557
     Active-active  3  5 in sym 1 :    -0.00000000
     Active-active  4  5 in sym 1 :    -0.00000000
     Active-active  5  5 in sym 1 :     0.00010169
     Active-active  1  1 in sym 2 :     0.00002226
     Active-active  2  1 in sym 2 :     0.00148563
     Active-active  1  2 in sym 2 :     0.00148563
     Active-active  2  2 in sym 2 :     0.00007016

     SD 009 z inactive part:     0.00000000
     SD 009 z active part  :     0.09080879
     SD 009 z total        :     0.09080879

TRIPLET OPERATOR: "SD 009 z" LAGRANGIAN: -0.017239 AVERAGE:  0.090809 TOTAL:  0.073570

 *** Individual non-zero orbital contributions
 *** to the expectation value for property SD 010 x :

     Active-active  1  1 in sym 1 :    -0.00037991
     Active-active  2  1 in sym 1 :     0.00000000
     Active-active  3  1 in sym 1 :     0.00001788
     Active-active  4  1 in sym 1 :    -0.00499159
     Active-active  5  1 in sym 1 :    -0.00000001
     Active-active  1  2 in sym 1 :     0.00000000
     Active-active  2  2 in sym 1 :    -0.00004331
     Active-active  3  2 in sym 1 :    -0.00000000
     Active-active  4  2 in sym 1 :     0.00000001
     Active-active  5  2 in sym 1 :    -0.00295352
     Active-active  1  3 in sym 1 :     0.00001788
     Active-active  2  3 in sym 1 :    -0.00000000
     Active-active  3  3 in sym 1 :     0.00668594
     Active-active  4  3 in sym 1 :    -0.00000248
     Active-active  5  3 in sym 1 :    -0.00000000
     Active-active  1  4 in sym 1 :    -0.00499159
     Active-active  2  4 in sym 1 :     0.00000001
     Active-active  3  4 in sym 1 :    -0.00000248
     Active-active  4  4 in sym 1 :    -0.00015637
     Active-active  5  4 in sym 1 :    -0.00000000
     Active-active  1  5 in sym 1 :    -0.00000001
     Active-active  2  5 in sym 1 :    -0.00295352
     Active-active  3  5 in sym 1 :    -0.00000000
     Active-active  4  5 in sym 1 :    -0.00000000
     Active-active  5  5 in sym 1 :    -0.00009471
     Active-active  1  1 in sym 2 :    -0.00005379
     Active-active  2  1 in sym 2 :    -0.00507970
     Active-active  1  2 in sym 2 :    -0.00507970
     Active-active  2  2 in sym 2 :    -0.00010274

     SD 010 x inactive part:     0.00000000
     SD 010 x active part  :    -0.02016372
     SD 010 x total        :    -0.02016372

TRIPLET OPERATOR: "SD 010 x" LAGRANGIAN:  0.031112 AVERAGE: -0.020164 TOTAL:  0.010948

 *** Individual non-zero orbital contributions
 *** to the expectation value for property SD 010 z :

     Active-active  1  1 in sym 1 :     0.00001296
     Active-active  2  1 in sym 1 :    -0.00000000
     Active-active  3  1 in sym 1 :     0.00007841
     Active-active  4  1 in sym 1 :     0.00002404
     Active-active  5  1 in sym 1 :     0.00000000
     Active-active  1  2 in sym 1 :    -0.00000000
     Active-active  2  2 in sym 1 :     0.00000116
     Active-active  3  2 in sym 1 :    -0.00000000
     Active-active  4  2 in sym 1 :    -0.00000000
     Active-active  5  2 in sym 1 :     0.00015417
     Active-active  1  3 in sym 1 :     0.00007841
     Active-active  2  3 in sym 1 :    -0.00000000
     Active-active  3  3 in sym 1 :     0.00569427
     Active-active  4  3 in sym 1 :    -0.00001162
     Active-active  5  3 in sym 1 :     0.00000000
     Active-active  1  4 in sym 1 :     0.00002404
     Active-active  2  4 in sym 1 :    -0.00000000
     Active-active  3  4 in sym 1 :    -0.00001162
     Active-active  4  4 in sym 1 :    -0.00000862
     Active-active  5  4 in sym 1 :     0.00000000
     Active-active  1  5 in sym 1 :     0.00000000
     Active-active  2  5 in sym 1 :     0.00015417
     Active-active  3  5 in sym 1 :     0.00000000
     Active-active  4  5 in sym 1 :     0.00000000
     Active-active  5  5 in sym 1 :     0.00000537
     Active-active  1  1 in sym 2 :     0.00000779
     Active-active  2  1 in sym 2 :     0.00070861
     Active-active  1  2 in sym 2 :     0.00070861
     Active-active  2  2 in sym 2 :     0.00001212

     SD 010 z inactive part: 0.00000000D+00
     SD 010 z active part  : 7.63229634D-03
     SD 010 z total        : 7.63229634D-03

TRIPLET OPERATOR: "SD 010 z" LAGRANGIAN: -0.002500 AVERAGE:  0.007632 TOTAL:  0.005133

 *** Individual non-zero orbital contributions
 *** to the expectation value for property SD 011 x :

     Active-active  1  1 in sym 1 :    -0.00002245
     Active-active  2  1 in sym 1 :     0.00000000
     Active-active  3  1 in sym 1 :    -0.00013581
     Active-active  4  1 in sym 1 :    -0.00004165
     Active-active  5  1 in sym 1 :    -0.00000000
     Active-active  1  2 in sym 1 :     0.00000000
     Active-active  2  2 in sym 1 :    -0.00000623
     Active-active  3  2 in sym 1 :     0.00000000
     Active-active  4  2 in sym 1 :     0.00000000
     Active-active  5  2 in sym 1 :    -0.00059710
     Active-active  1  3 in sym 1 :    -0.00013581
     Active-active  2  3 in sym 1 :     0.00000000
     Active-active  3  3 in sym 1 :    -0.00986276
     Active-active  4  3 in sym 1 :     0.00002012
     Active-active  5  3 in sym 1 :     0.00000000
     Active-active  1  4 in sym 1 :    -0.00004165
     Active-active  2  4 in sym 1 :     0.00000000
     Active-active  3  4 in sym 1 :     0.00002012
     Active-active  4  4 in sym 1 :     0.00001494
     Active-active  5  4 in sym 1 :    -0.00000000
     Active-active  1  5 in sym 1 :    -0.00000000
     Active-active  2  5 in sym 1 :    -0.00059710
     Active-active  3  5 in sym 1 :     0.00000000
     Active-active  4  5 in sym 1 :    -0.00000000
     Active-active  5  5 in sym 1 :    -0.00001423
     Active-active  1  1 in sym 2 :    -0.00000928
     Active-active  2  1 in sym 2 :    -0.00089729
     Active-active  1  2 in sym 2 :    -0.00089729
     Active-active  2  2 in sym 2 :    -0.00001606

     SD 011 x inactive part:     0.00000000
     SD 011 x active part  :    -0.01321951
     SD 011 x total        :    -0.01321951

TRIPLET OPERATOR: "SD 011 x" LAGRANGIAN:  0.004329 AVERAGE: -0.013220 TOTAL: -0.008890

 *** Individual non-zero orbital contributions
 *** to the expectation value for property SD 011 z :

     Active-active  1  1 in sym 1 :    -0.00044719
     Active-active  2  1 in sym 1 :    -0.00000000
     Active-active  3  1 in sym 1 :     0.00000922
     Active-active  4  1 in sym 1 :    -0.00826160
     Active-active  5  1 in sym 1 :    -0.00000000
     Active-active  1  2 in sym 1 :    -0.00000000
     Active-active  2  2 in sym 1 :    -0.00002215
     Active-active  3  2 in sym 1 :    -0.00000000
     Active-active  4  2 in sym 1 :     0.00000001
     Active-active  5  2 in sym 1 :    -0.00223120
     Active-active  1  3 in sym 1 :     0.00000922
     Active-active  2  3 in sym 1 :    -0.00000000
     Active-active  3  3 in sym 1 :    -0.11087627
     Active-active  4  3 in sym 1 :    -0.00000364
     Active-active  5  3 in sym 1 :    -0.00000000
     Active-active  1  4 in sym 1 :    -0.00826160
     Active-active  2  4 in sym 1 :     0.00000001
     Active-active  3  4 in sym 1 :    -0.00000364
     Active-active  4  4 in sym 1 :    -0.00012882
     Active-active  5  4 in sym 1 :     0.00000000
     Active-active  1  5 in sym 1 :    -0.00000000
     Active-active  2  5 in sym 1 :    -0.00223120
     Active-active  3  5 in sym 1 :    -0.00000000
     Active-active  4  5 in sym 1 :     0.00000000
     Active-active  5  5 in sym 1 :    -0.00008168
     Active-active  1  1 in sym 2 :    -0.00008070
     Active-active  2  1 in sym 2 :    -0.00790632
     Active-active  1  2 in sym 2 :    -0.00790632
     Active-active  2  2 in sym 2 :    -0.00013049

     SD 011 z inactive part:     0.00000000
     SD 011 z active part  :    -0.14855438
     SD 011 z total        :    -0.14855438

TRIPLET OPERATOR: "SD 011 z" LAGRANGIAN:  0.016387 AVERAGE: -0.148554 TOTAL: -0.132168

 *** Individual non-zero orbital contributions
 *** to the expectation value for property SD 012 x :

     Active-active  1  1 in sym 1 :     0.00001296
     Active-active  2  1 in sym 1 :    -0.00000000
     Active-active  3  1 in sym 1 :     0.00007841
     Active-active  4  1 in sym 1 :     0.00002404
     Active-active  5  1 in sym 1 :     0.00000000
     Active-active  1  2 in sym 1 :    -0.00000000
     Active-active  2  2 in sym 1 :     0.00000116
     Active-active  3  2 in sym 1 :    -0.00000000
     Active-active  4  2 in sym 1 :    -0.00000000
     Active-active  5  2 in sym 1 :     0.00015417
     Active-active  1  3 in sym 1 :     0.00007841
     Active-active  2  3 in sym 1 :    -0.00000000
     Active-active  3  3 in sym 1 :     0.00569427
     Active-active  4  3 in sym 1 :    -0.00001162
     Active-active  5  3 in sym 1 :     0.00000000
     Active-active  1  4 in sym 1 :     0.00002404
     Active-active  2  4 in sym 1 :    -0.00000000
     Active-active  3  4 in sym 1 :    -0.00001162
     Active-active  4  4 in sym 1 :    -0.00000862
     Active-active  5  4 in sym 1 :     0.00000000
     Active-active  1  5 in sym 1 :     0.00000000
     Active-active  2  5 in sym 1 :     0.00015417
     Active-active  3  5 in sym 1 :     0.00000000
     Active-active  4  5 in sym 1 :     0.00000000
     Active-active  5  5 in sym 1 :     0.00000537
     Active-active  1  1 in sym 2 :     0.00000779
     Active-active  2  1 in sym 2 :     0.00070861
     Active-active  1  2 in sym 2 :     0.00070861
     Active-active  2  2 in sym 2 :     0.00001212

     SD 012 x inactive part: 0.00000000D+00
     SD 012 x active part  : 7.63229634D-03
     SD 012 x total        : 7.63229634D-03

TRIPLET OPERATOR: "SD 012 x" LAGRANGIAN: -0.002500 AVERAGE:  0.007632 TOTAL:  0.005133

 *** Individual non-zero orbital contributions
 *** to the expectation value for property SD 012 z :

     Active-active  1  1 in sym 1 :    -0.00006823
     Active-active  2  1 in sym 1 :     0.00000000
     Active-active  3  1 in sym 1 :    -0.00000362
     Active-active  4  1 in sym 1 :    -0.00227402
     Active-active  5  1 in sym 1 :    -0.00000001
     Active-active  1  2 in sym 1 :     0.00000000
     Active-active  2  2 in sym 1 :    -0.00002485
     Active-active  3  2 in sym 1 :     0.00000000
     Active-active  4  2 in sym 1 :     0.00000001
     Active-active  5  2 in sym 1 :    -0.00253763
     Active-active  1  3 in sym 1 :    -0.00000362
     Active-active  2  3 in sym 1 :     0.00000000
     Active-active  3  3 in sym 1 :    -0.06735731
     Active-active  4  3 in sym 1 :    -0.00000086
     Active-active  5  3 in sym 1 :     0.00000000
     Active-active  1  4 in sym 1 :    -0.00227402
     Active-active  2  4 in sym 1 :     0.00000001
     Active-active  3  4 in sym 1 :    -0.00000086
     Active-active  4  4 in sym 1 :     0.00000381
     Active-active  5  4 in sym 1 :    -0.00000000
     Active-active  1  5 in sym 1 :    -0.00000001
     Active-active  2  5 in sym 1 :    -0.00253763
     Active-active  3  5 in sym 1 :     0.00000000
     Active-active  4  5 in sym 1 :    -0.00000000
     Active-active  5  5 in sym 1 :    -0.00002865
     Active-active  1  1 in sym 2 :     0.00001402
     Active-active  2  1 in sym 2 :     0.00070136
     Active-active  1  2 in sym 2 :     0.00070136
     Active-active  2  2 in sym 2 :     0.00000488

     SD 012 z inactive part:     0.00000000
     SD 012 z active part  :    -0.07568589
     SD 012 z total        :    -0.07568589

TRIPLET OPERATOR: "SD 012 z" LAGRANGIAN: -0.006095 AVERAGE: -0.075686 TOTAL: -0.081781

TRIPLET OPERATOR: "FC  H204" contribution = 0.0 by symmetry.
- Operator is of symmetry no.  2

TRIPLET OPERATOR: "SD 001 x" contribution = 0.0 by symmetry.
- Operator is of symmetry no.  2

TRIPLET OPERATOR: "SD 001 z" contribution = 0.0 by symmetry.
- Operator is of symmetry no.  2

TRIPLET OPERATOR: "SD 002 x" contribution = 0.0 by symmetry.
- Operator is of symmetry no.  2

TRIPLET OPERATOR: "SD 002 z" contribution = 0.0 by symmetry.
- Operator is of symmetry no.  2

TRIPLET OPERATOR: "SD 003 x" contribution = 0.0 by symmetry.
- Operator is of symmetry no.  2

TRIPLET OPERATOR: "SD 003 z" contribution = 0.0 by symmetry.
- Operator is of symmetry no.  2

TRIPLET OPERATOR: "SD 004 x" contribution = 0.0 by symmetry.
- Operator is of symmetry no.  2

TRIPLET OPERATOR: "SD 004 z" contribution = 0.0 by symmetry.
- Operator is of symmetry no.  2

TRIPLET OPERATOR: "SD 005 x" contribution = 0.0 by symmetry.
- Operator is of symmetry no.  2

TRIPLET OPERATOR: "SD 005 z" contribution = 0.0 by symmetry.
- Operator is of symmetry no.  2

TRIPLET OPERATOR: "SD 006 y" contribution = 0.0 by symmetry.
- Operator is of symmetry no.  2

TRIPLET OPERATOR: "SD 007 y" contribution = 0.0 by symmetry.
- Operator is of symmetry no.  2

TRIPLET OPERATOR: "SD 008 y" contribution = 0.0 by symmetry.
- Operator is of symmetry no.  2

TRIPLET OPERATOR: "SD 009 y" contribution = 0.0 by symmetry.
- Operator is of symmetry no.  2

TRIPLET OPERATOR: "SD 010 y" contribution = 0.0 by symmetry.
- Operator is of symmetry no.  2

TRIPLET OPERATOR: "SD 011 y" contribution = 0.0 by symmetry.
- Operator is of symmetry no.  2

TRIPLET OPERATOR: "SD 012 y" contribution = 0.0 by symmetry.
- Operator is of symmetry no.  2

 >>>> Total CPU  time used in RESPONSE:   3.87 seconds
 >>>> Total wall time used in RESPONSE:   3.91 seconds


                   .-------------------------------------------.
                   | End of Dynamic Property Section (RESPONS) |
                   `-------------------------------------------'

 >>>> Total CPU  time used in DALTON:  25.38 seconds
 >>>> Total wall time used in DALTON:  26.05 seconds

 
     Date and time (Linux)  : Sun Sep  8 20:50:33 2013
     Host name              : lpqlx131.ups-tlse.fr                    
