

     ************************************************************************
     *************** Dalton - An Electronic Structure Program ***************
     ************************************************************************

    This is output from DALTON release Dalton2017.alpha (2016)
         ( Web site: http://daltonprogram.org )

   ----------------------------------------------------------------------------

    NOTE:
     
    Dalton is an experimental code for the evaluation of molecular
    properties using (MC)SCF, DFT, CI, and CC wave functions.
    The authors accept no responsibility for the performance of
    the code or for the correctness of the results.
     
    The code (in whole or part) is provided under a licence and
    is not to be reproduced for further distribution without
    the written permission of the authors or their representatives.
     
    See the home page "http://daltonprogram.org" for further information.
     
    If results obtained with this code are published,
    the appropriate citations would be both of:
     
       K. Aidas, C. Angeli, K. L. Bak, V. Bakken, R. Bast,
       L. Boman, O. Christiansen, R. Cimiraglia, S. Coriani,
       P. Dahle, E. K. Dalskov, U. Ekstroem,
       T. Enevoldsen, J. J. Eriksen, P. Ettenhuber, B. Fernandez,
       L. Ferrighi, H. Fliegl, L. Frediani, K. Hald, A. Halkier,
       C. Haettig, H. Heiberg, T. Helgaker, A. C. Hennum,
       H. Hettema, E. Hjertenaes, S. Hoest, I.-M. Hoeyvik,
       M. F. Iozzi, B. Jansik, H. J. Aa. Jensen, D. Jonsson,
       P. Joergensen, J. Kauczor, S. Kirpekar,
       T. Kjaergaard, W. Klopper, S. Knecht, R. Kobayashi, H. Koch,
       J. Kongsted, A. Krapp, K. Kristensen, A. Ligabue,
       O. B. Lutnaes, J. I. Melo, K. V. Mikkelsen, R. H. Myhre,
       C. Neiss, C. B. Nielsen, P. Norman, J. Olsen,
       J. M. H. Olsen, A. Osted, M. J. Packer, F. Pawlowski,
       T. B. Pedersen, P. F. Provasi, S. Reine, Z. Rinkevicius,
       T. A. Ruden, K. Ruud, V. Rybkin, P. Salek, C. C. M. Samson,
       A. Sanchez de Meras, T. Saue, S. P. A. Sauer,
       B. Schimmelpfennig, K. Sneskov, A. H. Steindal,
       K. O. Sylvester-Hvid, P. R. Taylor, A. M. Teale,
       E. I. Tellgren, D. P. Tew, A. J. Thorvaldsen, L. Thoegersen,
       O. Vahtras, M. A. Watson, D. J. D. Wilson, M. Ziolkowski
       and H. Agren,
       "The Dalton quantum chemistry program system",
       WIREs Comput. Mol. Sci. 2014, 4:269–284 (doi: 10.1002/wcms.1172)
     
    and
     
       Dalton, a Molecular Electronic Structure Program,
       Release Dalton2017.alpha (2016), see http://daltonprogram.org
   ----------------------------------------------------------------------------

    Authors in alphabetical order (major contribution(s) in parenthesis):

  Kestutis Aidas,           Vilnius University,           Lithuania   (QM/MM)
  Celestino Angeli,         University of Ferrara,        Italy       (NEVPT2)
  Keld L. Bak,              UNI-C,                        Denmark     (AOSOPPA, non-adiabatic coupling, magnetic properties)
  Vebjoern Bakken,          University of Oslo,           Norway      (DALTON; geometry optimizer, symmetry detection)
  Radovan Bast,             UiT The Arctic U. of Norway,  Norway      (DALTON installation and execution frameworks)
  Pablo Baudin,             University of Valencia,       Spain       (Cholesky excitation energies)
  Linus Boman,              NTNU,                         Norway      (Cholesky decomposition and subsystems)
  Ove Christiansen,         Aarhus University,            Denmark     (CC module)
  Renzo Cimiraglia,         University of Ferrara,        Italy       (NEVPT2)
  Sonia Coriani,            University of Trieste,        Italy       (CC module, MCD in RESPONS)
  Janusz Cukras,            University of Trieste,        Italy       (MChD in RESPONS)
  Paal Dahle,               University of Oslo,           Norway      (Parallelization)
  Erik K. Dalskov,          UNI-C,                        Denmark     (SOPPA)
  Thomas Enevoldsen,        Univ. of Southern Denmark,    Denmark     (SOPPA)
  Janus J. Eriksen,         Aarhus University,            Denmark     (Polarizable embedding model, TDA)
  Rasmus Faber,             University of Copenhagen,     Denmark     (Vib.avg. NMR with SOPPA, parallel AO-SOPPA)
  Berta Fernandez,          U. of Santiago de Compostela, Spain       (doublet spin, ESR in RESPONS)
  Lara Ferrighi,            Aarhus University,            Denmark     (PCM Cubic response)
  Heike Fliegl,             University of Oslo,           Norway      (CCSD(R12))
  Luca Frediani,            UiT The Arctic U. of Norway,  Norway      (PCM)
  Bin Gao,                  UiT The Arctic U. of Norway,  Norway      (Gen1Int library)
  Christof Haettig,         Ruhr-University Bochum,       Germany     (CC module)
  Kasper Hald,              Aarhus University,            Denmark     (CC module)
  Asger Halkier,            Aarhus University,            Denmark     (CC module)
  Frederik Beyer Hansen,    University of Copenhagen,     Denmark     (Parallel AO-SOPPA)
  Erik D. Hedegaard,        Univ. of Southern Denmark,    Denmark     (Polarizable embedding model, QM/MM)
  Hanne Heiberg,            University of Oslo,           Norway      (geometry analysis, selected one-electron integrals)
  Trygve Helgaker,          University of Oslo,           Norway      (DALTON; ABACUS, ERI, DFT modules, London, and much more)
  Alf Christian Hennum,     University of Oslo,           Norway      (Parity violation)
  Hinne Hettema,            University of Auckland,       New Zealand (quadratic response in RESPONS; SIRIUS supersymmetry)
  Eirik Hjertenaes,         NTNU,                         Norway      (Cholesky decomposition)
  Pi A. B. Haase,           University of Copenhagen,     Denmark     (Triplet AO-SOPPA)
  Maria Francesca Iozzi,    University of Oslo,           Norway      (RPA)
  Brano Jansik              Technical Univ. of Ostrava    Czech Rep.  (DFT cubic response)
  Hans Joergen Aa. Jensen,  Univ. of Southern Denmark,    Denmark     (DALTON; SIRIUS, RESPONS, ABACUS modules, London, and much more)
  Dan Jonsson,              UiT The Arctic U. of Norway,  Norway      (cubic response in RESPONS module)
  Poul Joergensen,          Aarhus University,            Denmark     (RESPONS, ABACUS, and CC modules)
  Maciej Kaminski,          University of Warsaw,         Poland      (CPPh in RESPONS)
  Joanna Kauczor,           Linkoeping University,        Sweden      (Complex polarization propagator (CPP) module)
  Sheela Kirpekar,          Univ. of Southern Denmark,    Denmark     (Mass-velocity & Darwin integrals)
  Wim Klopper,              KIT Karlsruhe,                Germany     (R12 code in CC, SIRIUS, and ABACUS modules)
  Stefan Knecht,            ETH Zurich,                   Switzerland (Parallel CI and MCSCF)
  Rika Kobayashi,           Australian National Univ.,    Australia   (DIIS in CC, London in MCSCF)
  Henrik Koch,              NTNU,                         Norway      (CC module, Cholesky decomposition)
  Jacob Kongsted,           Univ. of Southern Denmark,    Denmark     (Polarizable embedding model, QM/MM)
  Andrea Ligabue,           University of Modena,         Italy       (CTOCD, AOSOPPA)
  Nanna H. List             Univ. of Southern Denmark,    Denmark     (Polarizable embedding model)
  Ola B. Lutnaes,           University of Oslo,           Norway      (DFT Hessian)
  Juan I. Melo,             University of Buenos Aires,   Argentina   (LRESC, Relativistic Effects on NMR Shieldings)
  Kurt V. Mikkelsen,        University of Copenhagen,     Denmark     (MC-SCRF and QM/MM)
  Rolf H. Myhre,            NTNU,                         Norway      (Cholesky, subsystems and ECC2)
  Christian Neiss,          Univ. Erlangen-Nuernberg,     Germany     (CCSD(R12))
  Christian B. Nielsen,     University of Copenhagen,     Denmark     (QM/MM)
  Patrick Norman,           Linkoeping University,        Sweden      (Cubic response and complex frequency response in RESPONS)
  Jeppe Olsen,              Aarhus University,            Denmark     (SIRIUS CI/density modules)
  Jogvan Magnus H. Olsen,   Univ. of Southern Denmark,    Denmark     (Polarizable embedding model, QM/MM)
  Anders Osted,             Copenhagen University,        Denmark     (QM/MM)
  Martin J. Packer,         University of Sheffield,      UK          (SOPPA)
  Filip Pawlowski,          Kazimierz Wielki University,  Poland      (CC3)
  Morten N. Pedersen,       Univ. of Southern Denmark,    Denmark     (Polarizable embedding model)
  Thomas B. Pedersen,       University of Oslo,           Norway      (Cholesky decomposition)
  Patricio F. Provasi,      University of Northeastern,   Argentina   (Analysis of coupling constants in localized orbitals)
  Zilvinas Rinkevicius,     KTH Stockholm,                Sweden      (open-shell DFT, ESR)
  Elias Rudberg,            KTH Stockholm,                Sweden      (DFT grid and basis info)
  Torgeir A. Ruden,         University of Oslo,           Norway      (Numerical derivatives in ABACUS)
  Kenneth Ruud,             UiT The Arctic U. of Norway,  Norway      (DALTON; ABACUS magnetic properties and much more)
  Pawel Salek,              KTH Stockholm,                Sweden      (DALTON; DFT code)
  Claire C. M. Samson       University of Karlsruhe       Germany     (Boys localization, r12 integrals in ERI)
  Alfredo Sanchez de Meras, University of Valencia,       Spain       (CC module, Cholesky decomposition)
  Trond Saue,               Paul Sabatier University,     France      (direct Fock matrix construction)
  Stephan P. A. Sauer,      University of Copenhagen,     Denmark     (SOPPA(CCSD), SOPPA prop., AOSOPPA, vibrational g-factors)
  Bernd Schimmelpfennig,    Forschungszentrum Karlsruhe,  Germany     (AMFI module)
  Kristian Sneskov,         Aarhus University,            Denmark     (Polarizable embedding model, QM/MM)
  Arnfinn H. Steindal,      UiT The Arctic U. of Norway,  Norway      (parallel QM/MM, Polarizable embedding model)
  Casper Steinmann,         Univ. of Southern Denmark,    Denmark     (QFIT, Polarizable embedding model)
  K. O. Sylvester-Hvid,     University of Copenhagen,     Denmark     (MC-SCRF)
  Peter R. Taylor,          VLSCI/Univ. of Melbourne,     Australia   (Symmetry handling ABACUS, integral transformation)
  Andrew M. Teale,          University of Nottingham,     England     (DFT-AC, DFT-D)
  David P. Tew,             University of Bristol,        England     (CCSD(R12))
  Olav Vahtras,             KTH Stockholm,                Sweden      (triplet response, spin-orbit, ESR, TDDFT, open-shell DFT)
  David J. Wilson,          La Trobe University,          Australia   (DFT Hessian and DFT magnetizabilities)
  Hans Agren,               KTH Stockholm,                Sweden      (SIRIUS module, RESPONS, MC-SCRF solvation model)
 --------------------------------------------------------------------------------

     Date and time (Darwin) : Sun Jan 21 18:48:37 2018
     Host name              : utonium.home                            

 * Work memory size             :    64000000 =  488.28 megabytes.

 * Directories for basis set searches:
   1) /Users/andre/Desktop/dalton_fde/dalton_fde_serial/test/fde_static_vemb
   2) /Users/andre/Desktop/dalton_fde/dalton_fde_serial/basis


Compilation information
-----------------------

 Who compiled             | andre
 Host                     | utonium.home
 System                   | Darwin-15.3.0
 CMake generator          | Unix Makefiles
 Processor                | x86_64
 64-bit integers          | OFF
 MPI                      | OFF
 Fortran compiler         | /opt/local/bin/gfortran
 Fortran compiler version | GNU Fortran (MacPorts gcc5 5.4.0_0) 5.4.0
 C compiler               | /opt/local/bin/gcc
 C compiler version       | gcc (MacPorts gcc5 5.4.0_0) 5.4.0
 C++ compiler             | /opt/local/bin/g++
 C++ compiler version     | g++ (MacPorts gcc5 5.4.0_0) 5.4.0
 BLAS                     | /usr/lib/libblas.dylib
 LAPACK                   | /usr/lib/liblapack.dylib
 Static linking           | OFF
 Last Git revision        | 54c9261aad955e433fd634e8ff17ccd02b82b8ad
 Git branch               | gomesasp/fde
 Configuration time       | 2018-01-20 22:40:00.556797


   Content of the .dal input file
 ----------------------------------

*DALTON INPUT
.RUN WAVE FUNCTIONS
.RUN PROPERTIES
.DIRECT
.FDE
*FDE
.EMBPOT
EMBPOT.acc4
.PRINT
1
**PROPERTIES
**WAVE FUNCTIONS
.DFT
 LDA
*SCF INPUT
.THRESH
1.0D-10
**END OF DALTON INPUT



   Content of the .mol file
 ----------------------------

BASIS
aug-cc-pVTZ
water, testing FDE
aug-cc-pVTZ basis
Angstrom Atomtypes=2 Generators=2 X Y
Charge=8.    Atoms=1
O    0.0000000          0.0000000         -0.2619247262
Charge=1.    Atoms=1
H    0.0000000000       0.7716276844       0.3426163129


       *******************************************************************
       *********** Output from DALTON general input processing ***********
       *******************************************************************

 --------------------------------------------------------------------------------
   Overall default print level:    0
   Print level for DALTON.STAT:    1

    AO-direct calculation (in sections where implemented)
    HERMIT 1- and 2-electron integral sections will be executed
    "Old" integral transformation used (limited to max 255 basis functions)
    Wave function sections will be executed (SIRIUS module)
    Static molecular property section will be executed (ABACUS module)
 --------------------------------------------------------------------------------
  
===========================================================================
  
  Frozen Density Embedding (FDE) Calculation setup

 * FDE print level               :     1
 * FDE Potential read from file : EMBPOT.acc4                                                 

   Enviroment effects included via the fixed potential method described in:
   A.S.P. Gomes, C. R. Jacob and L. Visscher, PCCP 10 (2008) 5353-5362.

===========================================================================
  


   ****************************************************************************
   *************** Output of molecule and basis set information ***************
   ****************************************************************************


    The two title cards from your ".mol" input:
    ------------------------------------------------------------------------
 1: water, testing FDE                                                      
 2: aug-cc-pVTZ basis                                                       
    ------------------------------------------------------------------------

  Coordinates are entered in Angstrom and converted to atomic units.
          - Conversion factor : 1 bohr = 0.52917721 A

  Atomic type no.    1
  --------------------
  Nuclear charge:   8.00000
  Number of symmetry independent centers:    1
  Number of basis sets to read;    2
  Basis set file used for this atomic type with Z =   8 :
     "/Users/andre/Desktop/dalton_fde/dalton_fde_serial/basis/aug-cc-pVTZ"

  Atomic type no.    2
  --------------------
  Nuclear charge:   1.00000
  Number of symmetry independent centers:    1
  Number of basis sets to read;    2
  Basis set file used for this atomic type with Z =   1 :
     "/Users/andre/Desktop/dalton_fde/dalton_fde_serial/basis/aug-cc-pVTZ"


                         SYMGRP: Point group information
                         -------------------------------

@    Point group: C2v

@  * The irrep name for each symmetry:    1: A1     2: B1     3: B2     4: A2 

   * The point group was generated by:

      Reflection in the yz-plane
      Reflection in the xz-plane

   * Group multiplication table

        |  E   C2z  Oxz  Oyz
   -----+--------------------
     E  |  E   C2z  Oxz  Oyz
    C2z | C2z   E   Oyz  Oxz
    Oxz | Oxz  Oyz   E   C2z
    Oyz | Oyz  Oxz  C2z   E 

   * Character table

        |  E   C2z  Oxz  Oyz
   -----+--------------------
    A1  |   1    1    1    1
    B1  |   1   -1    1   -1
    B2  |   1   -1   -1    1
    A2  |   1    1   -1   -1

   * Direct product table

        | A1   B1   B2   A2 
   -----+--------------------
    A1  | A1   B1   B2   A2 
    B1  | B1   A1   A2   B2 
    B2  | B2   A2   A1   B1 
    A2  | A2   B2   B1   A1 


                                 Isotopic Masses
                                 ---------------

                           O          15.994915
                           H   _1      1.007825
                           H   _2      1.007825

                       Total mass:    18.010565 amu
                       Natural abundance:  99.730 %

 Center-of-mass coordinates (a.u.):    0.000000    0.000000   -0.367113


  Atoms and basis sets
  --------------------

  Number of atom types :    2
  Total number of atoms:    3

  Basis set used is "aug-cc-pVTZ" from the basis set library.

  label    atoms   charge   prim   cont     basis
  ----------------------------------------------------------------------
  O           1    8.0000    58    46      [11s6p3d2f|5s4p3d2f]                               
  H           2    1.0000    25    23      [6s3p2d|4s3p2d]                                    
  ----------------------------------------------------------------------
  total:      3   10.0000   108    92
  ----------------------------------------------------------------------
  Spherical harmonic basis used.

  Threshold for neglecting AO integrals:  1.00D-12


  Cartesian Coordinates (a.u.)
  ----------------------------

  Total number of coordinates:    9
  O       :     1  x   0.0000000000    2  y   0.0000000000    3  z  -0.4949659979
  H   / 1 :     4  x   0.0000000000    5  y   1.4581649940    6  z   0.6474509973
  H   / 2 :     7  x   0.0000000000    8  y  -1.4581649940    9  z   0.6474509973


  Symmetry Coordinates
  --------------------

  Number of coordinates in each symmetry:     3    2    3    1

  Symmetry  A1  ( 1)

    1   O     z    3
    2   H     y    [  5  -    8 ]/2
    3   H     z    [  6  +    9 ]/2

  Symmetry  B1  ( 2)

    4   O     x    1
    5   H     x    [  4  +    7 ]/2

  Symmetry  B2  ( 3)

    6   O     y    2
    7   H     y    [  5  +    8 ]/2
    8   H     z    [  6  -    9 ]/2

  Symmetry  A2  ( 4)

    9   H     x    [  4  -    7 ]/2


   Interatomic separations (in Angstrom):
   --------------------------------------

            O           H   _1      H   _2
            ------      ------      ------
 O     :    0.000000
 H   _1:    0.980244    0.000000
 H   _2:    0.980244    1.543255    0.000000


  Max    interatomic separation is    1.5433 Angstrom (    2.9163 Bohr)
  between atoms    3 and    2, "H   _2" and "H   _1".

  Min HX interatomic separation is    0.9802 Angstrom (    1.8524 Bohr)


  Bond distances (Angstrom):
  --------------------------

                  atom 1     atom 2       distance
                  ------     ------       --------
  bond distance:  H   _1     O            0.980244
  bond distance:  H   _2     O            0.980244


  Bond angles (degrees):
  ----------------------

                  atom 1     atom 2     atom 3         angle
                  ------     ------     ------         -----
  bond angle:     H   _1     O          H   _2       103.845




 Principal moments of inertia (u*A**2) and principal axes
 --------------------------------------------------------

   IA       0.654216          0.000000    1.000000    0.000000
   IB       1.200137          0.000000    0.000000    1.000000
   IC       1.854353          1.000000    0.000000    0.000000


 Rotational constants
 --------------------

@    The molecule is planar.

               A                   B                   C

         772495.3934         421101.1936         272536.5804 MHz
           25.767673           14.046424            9.090842 cm-1


@  Nuclear repulsion energy :    8.980370271926 Hartree


  Symmetry Orbitals
  -----------------

  Number of orbitals in each symmetry:          35   18   27   12


  Symmetry  A1 ( 1)

    1     O        1s         1
    2     O        1s         2
    3     O        1s         3
    4     O        1s         4
    5     O        1s         5
    6     O        2pz        8
    7     O        2pz       11
    8     O        2pz       14
    9     O        2pz       17
   10     O        3d0       20
   11     O        3d2+      22
   12     O        3d0       25
   13     O        3d2+      27
   14     O        3d0       30
   15     O        3d2+      32
   16     O        4f0       36
   17     O        4f2+      38
   18     O        4f0       43
   19     O        4f2+      45
   20     H        1s        47 +   48
   21     H        1s        49 +   50
   22     H        1s        51 +   52
   23     H        1s        53 +   54
   24     H        2py       57 -   58
   25     H        2pz       59 +   60
   26     H        2py       63 -   64
   27     H        2pz       65 +   66
   28     H        2py       69 -   70
   29     H        2pz       71 +   72
   30     H        3d1-      75 -   76
   31     H        3d0       77 +   78
   32     H        3d2+      81 +   82
   33     H        3d1-      85 -   86
   34     H        3d0       87 +   88
   35     H        3d2+      91 +   92


  Symmetry  B1 ( 2)

   36     O        2px        6
   37     O        2px        9
   38     O        2px       12
   39     O        2px       15
   40     O        3d1+      21
   41     O        3d1+      26
   42     O        3d1+      31
   43     O        4f1+      37
   44     O        4f3+      39
   45     O        4f1+      44
   46     O        4f3+      46
   47     H        2px       55 +   56
   48     H        2px       61 +   62
   49     H        2px       67 +   68
   50     H        3d2-      73 -   74
   51     H        3d1+      79 +   80
   52     H        3d2-      83 -   84
   53     H        3d1+      89 +   90


  Symmetry  B2 ( 3)

   54     O        2py        7
   55     O        2py       10
   56     O        2py       13
   57     O        2py       16
   58     O        3d1-      19
   59     O        3d1-      24
   60     O        3d1-      29
   61     O        4f3-      33
   62     O        4f1-      35
   63     O        4f3-      40
   64     O        4f1-      42
   65     H        1s        47 -   48
   66     H        1s        49 -   50
   67     H        1s        51 -   52
   68     H        1s        53 -   54
   69     H        2py       57 +   58
   70     H        2pz       59 -   60
   71     H        2py       63 +   64
   72     H        2pz       65 -   66
   73     H        2py       69 +   70
   74     H        2pz       71 -   72
   75     H        3d1-      75 +   76
   76     H        3d0       77 -   78
   77     H        3d2+      81 -   82
   78     H        3d1-      85 +   86
   79     H        3d0       87 -   88
   80     H        3d2+      91 -   92


  Symmetry  A2 ( 4)

   81     O        3d2-      18
   82     O        3d2-      23
   83     O        3d2-      28
   84     O        4f2-      34
   85     O        4f2-      41
   86     H        2px       55 -   56
   87     H        2px       61 -   62
   88     H        2px       67 -   68
   89     H        3d2-      73 +   74
   90     H        3d1+      79 -   80
   91     H        3d2-      83 +   84
   92     H        3d1+      89 -   90

  Symmetries of electric field:  B1 (2)  B2 (3)  A1 (1)

  Symmetries of magnetic field:  B2 (3)  B1 (2)  A2 (4)


                     .---------------------------------------.
                     | Starting in Integral Section (HERMIT) |
                     `---------------------------------------'



 ***************************************************************************************
 ****************** Output from **INTEGRALS input processing (HERMIT) ******************
 ***************************************************************************************


 - Using defaults, no **INTEGRALS input found

 Default print level:        1

 * Nuclear model: Point charge

 Calculation of one-electron Hamiltonian integrals.

 Center of mass  (bohr):      0.000000000000      0.000000000000     -0.367112550952
 Operator center (bohr):      0.000000000000      0.000000000000      0.000000000000
 Gauge origin    (bohr):      0.000000000000      0.000000000000      0.000000000000
 Dipole origin   (bohr):      0.000000000000      0.000000000000      0.000000000000


     ************************************************************************
     ************************** Output from HERINT **************************
     ************************************************************************



                      Nuclear contribution to dipole moments
                      --------------------------------------

                 au               Debye          C m (/(10**-30)

      z     -2.66482599        -6.77331162       -22.59333561


  Time used in ONEDRV     is       1.01 seconds
  Total CPU  time used in HERMIT:   1.05 seconds
  Total wall time used in HERMIT:   1.06 seconds


                        .----------------------------------.
                        | End of Integral Section (HERMIT) |
                        `----------------------------------'



                   .--------------------------------------------.
                   | Starting in Wave Function Section (SIRIUS) |
                   `--------------------------------------------'


 *** Output from Huckel module :

     Using EWMO model:          F
     Using EHT  model:          T
     Number of Huckel orbitals each symmetry:    4    1    2    0

 Huckel EHT eigenvalues for symmetry :  1
          -20.703475      -1.495744      -0.672165      -0.299309

 Huckel EHT eigenvalues for symmetry :  2
           -0.616200

 Huckel EHT eigenvalues for symmetry :  3
           -0.729833      -0.263176

 **********************************************************************
 *SIRIUS* a direct, restricted step, second order MCSCF program       *
 **********************************************************************

 
     Date and time (Darwin) : Sun Jan 21 18:48:39 2018
     Host name              : utonium.home                            

 Title lines from ".mol" input file:
     water, testing FDE                                                      
     aug-cc-pVTZ basis                                                       

 Print level on unit LUPRI =   2 is   0
 Print level on unit LUW4  =   2 is   5

@    Restricted, closed shell Kohn-Sham DFT calculation.
 Fock matrices are calculated directly without use of integrals on disk.

 Initial molecular orbitals are obtained according to
 ".MOSTART EHT   " input option

     Wave function specification
     ============================
@    Wave function type        --- KS-DFT ---
@    Number of closed shell electrons          10
@    Number of electrons in active shells       0
@    Total charge of the molecule               0

@    Spin multiplicity and 2 M_S                1         0
@    Total number of symmetries                 4 (point group: C2v)
@    Reference state symmetry                   1 (irrep name : A1 )
 
     This is a DFT calculation of type: LDA

     Orbital specifications
     ======================
@    Abelian symmetry species          All |    1    2    3    4
@                                          |  A1   B1   B2   A2 
                                       --- |  ---  ---  ---  ---
@    Total number of orbitals           92 |   35   18   27   12
@    Number of basis functions          92 |   35   18   27   12

      ** Automatic occupation of RKS orbitals **

      -- Initial occupation of symmetries is determined from extended Huckel guess.           
      -- Initial occupation of symmetries is :
@    Occupied SCF orbitals               5 |    3    1    1    0

     Maximum number of Fock   iterations      0
     Maximum number of DIIS   iterations     60
     Maximum number of QC-SCF iterations     60
     Threshold for SCF convergence     1.00D-10
 
     This is a DFT calculation of type: LDA


 ***********************************************
 ***** DIIS acceleration of SCF iterations *****
 ***********************************************

 C1-DIIS algorithm; max error vectors =    8

 Automatic occupation of symmetries with  10 electrons.

 Iter     Total energy    Error norm  Delta(E)    SCF occupation
 -----------------------------------------------------------------------------
   1  Screening settings (-IFTHRS, JTDIIS, DIFDEN, times)   -7    1    F  4.59D-01  4.79D-01
      K-S energy, electrons, error :     -8.690629980624  10.0000001292    1.29D-07
@  1  -75.2898594979       2.60D+00  -7.53D+01     3   1   1   0
      Virial theorem: -V/T =      1.989266
@    MULPOP   O      -0.72; H   _1  0.36; H   _2  0.36; 
   1  Level shift: doubly occupied orbital energies shifted by -2.00D-01
 -----------------------------------------------------------------------------
   2  Screening settings (-IFTHRS, JTDIIS, DIFDEN, times)   -7    2    F  3.52D-01  3.53D-01
      K-S energy, electrons, error :     -8.740235912146  10.0000001666    1.67D-07
@  2  -75.4942612113       6.83D-01  -2.04D-01     3   1   1   0
      Virial theorem: -V/T =      2.001180
@    MULPOP   O      -0.42; H   _1  0.21; H   _2  0.21; 
   2  Level shift: doubly occupied orbital energies shifted by -1.00D-01
 -----------------------------------------------------------------------------
   3  Screening settings (-IFTHRS, JTDIIS, DIFDEN, times)   -8    3    F  3.67D-01  3.69D-01
      K-S energy, electrons, error :     -8.706295136325  10.0000001694    1.69D-07
@  3  -75.5094165899       1.04D-01  -1.52D-02     3   1   1   0
      Virial theorem: -V/T =      2.003029
@    MULPOP   O      -0.30; H   _1  0.15; H   _2  0.15; 
   3  Level shift: doubly occupied orbital energies shifted by -2.50D-02
 -----------------------------------------------------------------------------
   4  Screening settings (-IFTHRS, JTDIIS, DIFDEN, times)   -9    4    F  3.56D-01  3.58D-01
      K-S energy, electrons, error :     -8.727367917319  10.0000001710    1.71D-07
@  4  -75.5097241503       5.58D-02  -3.08D-04     3   1   1   0
      Virial theorem: -V/T =      2.000748
@    MULPOP   O      -0.32; H   _1  0.16; H   _2  0.16; 
   4  Level shift: doubly occupied orbital energies shifted by -2.50D-02
 -----------------------------------------------------------------------------
   5  Screening settings (-IFTHRS, JTDIIS, DIFDEN, times)   -9    5    F  3.46D-01  3.48D-01
      K-S energy, electrons, error :     -8.710225174125  10.0000001706    1.71D-07
@  5  -75.5098061989       2.88D-02  -8.20D-05     3   1   1   0
      Virial theorem: -V/T =      2.002342
@    MULPOP   O      -0.30; H   _1  0.15; H   _2  0.15; 
   5  Level shift: doubly occupied orbital energies shifted by -2.50D-02
 -----------------------------------------------------------------------------
   6  Screening settings (-IFTHRS, JTDIIS, DIFDEN, times)   -9    6    F  3.46D-01  3.47D-01
      K-S energy, electrons, error :     -8.715908662916  10.0000001707    1.71D-07
@  6  -75.5098417707       4.69D-04  -3.56D-05     3   1   1   0
      Virial theorem: -V/T =      2.001844
@    MULPOP   O      -0.31; H   _1  0.16; H   _2  0.16; 
 -----------------------------------------------------------------------------
   7  Screening settings (-IFTHRS, JTDIIS, DIFDEN, times)  -11    7    F  3.54D-01  3.54D-01
      K-S energy, electrons, error :     -8.716066544633  10.0000001707    1.71D-07
@  7  -75.5098417826       2.00D-04  -1.19D-08     3   1   1   0
      Virial theorem: -V/T =      2.001832
@    MULPOP   O      -0.31; H   _1  0.16; H   _2  0.16; 
 -----------------------------------------------------------------------------
   8  Screening settings (-IFTHRS, JTDIIS, DIFDEN, times)  -12    8    F  3.47D-01  3.48D-01
      K-S energy, electrons, error :     -8.716020390764  10.0000001707    1.71D-07
@  8  -75.5098417845       6.56D-06  -1.90D-09     3   1   1   0
      Virial theorem: -V/T =      2.001836
@    MULPOP   O      -0.31; H   _1  0.16; H   _2  0.16; 
 -----------------------------------------------------------------------------
   9  Screening settings (-IFTHRS, JTDIIS, DIFDEN, times)  -13    9    F  3.45D-01  3.46D-01
      K-S energy, electrons, error :     -8.716019647020  10.0000001707    1.71D-07
@  9  -75.5098417845       1.03D-06  -2.90D-12     3   1   1   0
      Virial theorem: -V/T =      2.001836
@    MULPOP   O      -0.31; H   _1  0.16; H   _2  0.16; 
 -----------------------------------------------------------------------------
  10  Screening settings (-IFTHRS, JTDIIS, DIFDEN, times)  -14   10    F  3.50D-01  3.52D-01
      K-S energy, electrons, error :     -8.716019843824  10.0000001707    1.71D-07
@ 10  -75.5098417845       3.60D-08   2.27D-13     3   1   1   0
      Virial theorem: -V/T =      2.001836
@    MULPOP   O      -0.31; H   _1  0.16; H   _2  0.16; 
 -----------------------------------------------------------------------------
  11  Screening settings (-IFTHRS, JTDIIS, DIFDEN, times)  -15   11    F  3.56D-01  3.58D-01
      K-S energy, electrons, error :     -8.716019838211  10.0000001707    1.71D-07
@ 11  -75.5098417845       1.77D-09  -1.14D-13     3   1   1   0
      Virial theorem: -V/T =      2.001836
@    MULPOP   O      -0.31; H   _1  0.16; H   _2  0.16; 
 -----------------------------------------------------------------------------
  12  Screening settings (-IFTHRS, JTDIIS, DIFDEN, times)  -16   12    F  3.55D-01  3.56D-01
      K-S energy, electrons, error :     -8.716019838055  10.0000001707    1.71D-07
@ 12  -75.5098417845       1.08D-10  -5.68D-14     3   1   1   0
      Virial theorem: -V/T =      2.001836
@    MULPOP   O      -0.31; H   _1  0.16; H   _2  0.16; 
 -----------------------------------------------------------------------------
  13  Screening settings (-IFTHRS, JTDIIS, DIFDEN, times)  -16   13    F  3.51D-01  3.53D-01
      K-S energy, electrons, error :     -8.716019838042  10.0000001707    1.71D-07
@ 13  -75.5098417845       4.71D-11   8.53D-14     3   1   1   0

@ *** DIIS converged in  13 iterations !
@     Converged SCF energy, gradient:    -75.509841784526    4.71D-11
    - total time used in SIRFCK :              0.00 seconds


 *** SCF orbital energy analysis ***

 Only the 20 lowest virtual orbital energies printed in each symmetry.

 Number of electrons :   10
 Orbital occupations :    3    1    1    0

 Sym       Kohn-Sham orbital energies

1 A1    -18.57134413    -0.87448693    -0.30326608    -0.01757126     0.08877080
          0.10554612     0.19164904     0.24563264     0.36828838     0.52231867
          0.57428269     0.69126532     0.73064166     0.82183092     0.99825556
          1.08507256     1.34837785     1.58206741     1.86931846     2.04812434
          2.10465695     2.20786077     2.45435204

2 B1     -0.23099404     0.10392693     0.22419300     0.58950172     0.71218852
          0.76133812     0.93688643     1.37687911     1.96297468     2.13379087
          2.41120291     3.56666838     3.95088290     4.04595172     5.01918996
          6.17125960     6.57102244     6.63361199

3 B2     -0.43196774     0.01743041     0.14223789     0.18435247     0.32183524
          0.39478542     0.48171505     0.76355994     0.84153902     0.95506334
          1.06226796     1.14691870     1.62564495     1.77513898     2.16165392
          2.40882023     2.54325555     3.27890444     3.90327371     4.10720378
          4.37823137

4 A2      0.19711811     0.58785561     0.81909000     1.06451486     1.32320072
          2.01656755     2.58540092     3.68095374     4.03923028     4.72467486
          6.72276482     6.75516657

    E(LUMO) :    -0.01757126 au (symmetry 1)
  - E(HOMO) :    -0.23099404 au (symmetry 2)
  ------------------------------------------
    gap     :     0.21342278 au

 --- Writing SIRIFC interface file

 CPU and wall time for SCF :       9.827       9.902


                       .-----------------------------------.
                       | --- Final results from SIRIUS --- |
                       `-----------------------------------'


@    Spin multiplicity:           1
@    Spatial symmetry:            1 ( irrep  A1  in C2v )
@    Total charge of molecule:    0

@    Final DFT energy:            -75.509841784526                 
@    Nuclear repulsion:             8.980370271926
@    Electronic energy:           -84.490212056452

@    Final gradient norm:           0.000000000047

 
     Date and time (Darwin) : Sun Jan 21 18:48:49 2018
     Host name              : utonium.home                            

File label for MO orbitals:  21Jan18   FOCKDIIS

 (Only coefficients > 0.0100 are printed.)

 Molecular orbitals for symmetry species 1  (A1 )
 ------------------------------------------------

    Orbital         1        2        3        4        5        6        7
   1 O   :1s     0.9790  -0.0204   0.0029   0.0040  -0.0081  -0.0025   0.0086
   2 O   :1s    -0.0377   0.8317  -0.3278  -0.1617  -0.2118  -0.3122  -0.0481
   3 O   :1s     0.0293   0.0045  -0.0020  -0.0034  -0.0151  -0.0187  -0.0043
   4 O   :1s     0.0187  -0.0292  -0.2017  -0.3682   1.7554   0.5001  -0.2204
   5 O   :1s     0.0033   0.0369  -0.0794  -0.9159   6.6287   1.0573  -2.0338
   6 O   :2pz    0.0048   0.1819   0.8388  -0.1608  -0.3515   0.0239  -0.0708
   7 O   :2pz   -0.0065  -0.0063  -0.0557  -0.0061   0.0985   0.0280  -0.0016
   8 O   :2pz    0.0031  -0.0398  -0.0784  -0.2179   0.5417   0.3649   0.8659
   9 O   :2pz    0.0010   0.0030   0.0365   0.1455   1.4922  -1.2548   0.9932
  12 O   :3d0    0.0003   0.0045   0.0146  -0.0144  -0.0097   0.0206   0.0257
  13 O   :3d2+   0.0015  -0.0080   0.0054   0.0137  -0.0457  -0.0426   0.0072
  14 O   :3d0    0.0010   0.0008   0.0020  -0.0258  -0.0298  -0.0408   0.5619
  15 O   :3d2+  -0.0017   0.0033   0.0076  -0.0321  -0.1842  -0.0368   0.3289
  18 O   :4f0    0.0000   0.0013   0.0013  -0.0008  -0.0127  -0.0095   0.0529
  19 O   :4f2+  -0.0006   0.0007   0.0002   0.0031  -0.0195  -0.0230   0.0067
  20 H   :1s     0.0022   0.3798   0.3432   0.0480   0.1108   0.2105   0.2011
  21 H   :1s    -0.0009  -0.1093  -0.0004   0.1207  -0.4244  -0.3161  -0.0499
  22 H   :1s    -0.0028  -0.1573  -0.0845   0.2022  -2.9490   0.1802   0.9823
  23 H   :1s    -0.0000  -0.0015   0.0051   0.7101  -0.9272  -0.3785   0.1027
  24 H   :2py   -0.0008  -0.0104  -0.0091   0.0025   0.0068   0.0108  -0.0022
  26 H   :2py   -0.0018  -0.0109  -0.0339  -0.0213   0.2268   0.0990   0.2059
  27 H   :2pz   -0.0026  -0.0070   0.0023   0.0142   0.2182   0.0600  -0.2304
  28 H   :2py   -0.0003   0.0045  -0.0088  -0.2044   0.6173   0.3397   0.6472
  29 H   :2pz   -0.0004   0.0043   0.0174  -0.1111   0.6630   0.3518  -1.1906
  30 H   :3d1-   0.0006   0.0022   0.0023   0.0019  -0.0138  -0.0068   0.0072
  33 H   :3d1-   0.0017  -0.0030  -0.0090  -0.0141  -0.1267  -0.0510   0.0464
  34 H   :3d0    0.0004  -0.0006  -0.0060  -0.0273  -0.0412   0.0063   0.2360
  35 H   :3d2+  -0.0008   0.0017   0.0009  -0.0054   0.0611   0.0491   0.1272

    Orbital         8        9       10       11       12       13
   1 O   :1s     0.0242   0.0151  -0.0389  -0.0341  -0.0104   0.0543
   2 O   :1s     0.0439   0.3382  -0.2132  -0.1960   0.1240  -0.0593
   3 O   :1s     0.0142   0.0068   0.0049   0.0005  -0.0099   0.0731
   4 O   :1s    -1.6227   4.7339   0.6013   0.5221   0.2221  -8.2009
   5 O   :1s    -8.2726   9.0524   5.1105   2.9231  -3.4490  -9.0809
   6 O   :2pz   -0.3987   0.2288   0.0550   0.0007   0.2511   0.6794
   7 O   :2pz   -0.0602   0.2018   0.0387   0.0642   0.0380  -0.3047
   8 O   :2pz   -1.8341   0.3222  -1.2183   1.8284   0.3614  -6.6805
   9 O   :2pz   -2.3452   0.4721   0.6871   1.9163  -0.6391  -1.2780
  10 O   :3d0    0.0041   0.0044   0.0029   0.0206   0.0038   0.0154
  11 O   :3d2+  -0.0075   0.0010  -0.0208  -0.0160  -0.0010  -0.0109
  12 O   :3d0   -0.0397  -0.0068  -0.1038   0.0545  -0.0681  -0.1147
  13 O   :3d2+   0.0489  -0.0539  -0.0662   0.0420  -0.0351   0.3519
  14 O   :3d0   -0.2697  -0.1346  -1.0389   1.6173  -0.5772  -0.7012
  15 O   :3d2+   0.1578   0.1202  -1.2155   0.0225  -1.2416   1.4193
  16 O   :4f0    0.0052  -0.0006   0.0073  -0.0059   0.0202   0.0153
  17 O   :4f2+   0.0033  -0.0085  -0.0027  -0.0005   0.0178   0.0048
  18 O   :4f0   -0.0130  -0.0064  -0.1047   0.0805  -0.1773   0.0505
  19 O   :4f2+   0.0455   0.0431  -0.0384  -0.0107  -0.1613   0.2917
  20 H   :1s     0.2383  -0.1452   0.3758   0.2367  -0.4558  -0.2317
  21 H   :1s     0.9680  -0.1310   0.1448  -0.4562  -1.9271   4.7238
  22 H   :1s     4.1905  -5.2591  -3.4612  -1.9146   2.9442   5.2737
  23 H   :1s     0.4474  -0.7306  -0.1204  -0.0287   0.1212   0.3954
  24 H   :2py    0.0059  -0.0172   0.0180  -0.0263   0.0213  -0.0285
  25 H   :2pz   -0.0035  -0.0186  -0.0316   0.0227   0.0132  -0.0489
  26 H   :2py   -0.3678   0.2760  -0.1182   0.3951  -0.2344  -1.4402
  27 H   :2pz   -0.0871   0.3247   0.4236  -0.2094   0.2041  -0.7297
  28 H   :2py   -0.4075   2.2247  -0.5048   0.3822  -0.9158  -0.7851
  29 H   :2pz    0.3701   1.9599   0.8786  -1.0866  -0.3849  -0.1050
  30 H   :3d1-   0.0196  -0.0115  -0.0179   0.0005   0.0008   0.0761
  31 H   :3d0    0.0001  -0.0079  -0.0066  -0.0017  -0.0250   0.0028
  32 H   :3d2+  -0.0201  -0.0012  -0.0058   0.0207  -0.0182  -0.0526
  33 H   :3d1-  -0.1061  -0.4300  -0.0255   0.0921  -0.1173  -0.1555
  34 H   :3d0   -0.0698  -0.0336  -0.4176   0.4655   0.0532  -0.1538
  35 H   :3d2+  -0.0163   0.2353  -0.2904   0.0625  -0.2439  -0.2013

 Molecular orbitals for symmetry species 2  (B1 )
 ------------------------------------------------

    Orbital         1        2        3        4        5        6        7
   1 O   :2px    0.9401   0.3571   0.2288  -0.1169  -0.5958   0.3693  -0.2948
   2 O   :2px   -0.0420  -0.0335  -0.0501  -0.0468  -0.2105   0.1770  -0.2377
   3 O   :2px   -0.0034   0.1099   1.5914  -1.3964   4.0511  -1.2137  -0.5948
   4 O   :2px    0.0628  -1.4218   2.0636  -1.5179   0.7062   0.0951  -0.4377
   5 O   :3d1+   0.0059  -0.0013  -0.0070  -0.0288  -0.0131   0.0155   0.0144
   6 O   :3d1+   0.0134   0.0278   0.0243   0.0029   0.1396  -0.0709  -0.0549
   7 O   :3d1+   0.0048  -0.0891   0.4694  -1.3993   1.2748   0.8189   0.5960
   8 O   :4f1+   0.0013   0.0011  -0.0056   0.0001  -0.0181  -0.0231  -0.0027
   9 O   :4f3+  -0.0031  -0.0023   0.0071  -0.0163   0.0098  -0.0178  -0.0125
  10 O   :4f1+   0.0006  -0.0008   0.0390  -0.0321   0.1271   0.0970   0.0215
  11 O   :4f3+  -0.0006  -0.0010  -0.0726   0.1156  -0.1494   0.1126   0.0405
  12 H   :2px    0.0107   0.0011   0.0045  -0.0290   0.0336   0.0080   0.0119
  13 H   :2px    0.0328  -0.0113  -0.2987   0.3380  -0.5845   0.0695  -0.2891
  14 H   :2px    0.0331   0.2241  -1.8079   1.3446  -1.4005   0.2319   0.5298
  15 H   :3d2-  -0.0040   0.0009   0.0050  -0.0055   0.0169  -0.0242   0.0283
  16 H   :3d1+  -0.0031   0.0016   0.0039   0.0027   0.0246   0.0009   0.0257
  17 H   :3d2-  -0.0095  -0.0120   0.2949  -0.2100   0.8947   0.3895  -0.5425
  18 H   :3d1+  -0.0060  -0.0083   0.1691  -0.3872   0.2855  -0.6420  -0.7885

    Orbital         8        9       10       11
   1 O   :2px    0.2600   0.0916   0.0329   0.4415
   2 O   :2px    0.1114  -0.0008  -0.0180  -0.1364
   3 O   :2px    5.0112   0.1466   0.7884   4.5632
   4 O   :2px    0.8414  -0.3587   0.1509   0.4072
   5 O   :3d1+  -0.0274   0.0150  -0.0102  -0.0007
   6 O   :3d1+  -0.0734   0.9799  -0.1465   1.0668
   7 O   :3d1+   2.0691  -0.6234   1.0845   1.3249
   8 O   :4f1+  -0.0021   0.0108  -0.1143  -0.0181
   9 O   :4f3+   0.0142  -0.0638  -0.0166   0.0951
  10 O   :4f1+   0.0125  -0.0240   1.2883   0.4020
  11 O   :4f3+  -0.1732   0.7419   0.1999  -1.4753
  12 H   :2px    0.0702   0.0449  -0.0200  -0.0127
  13 H   :2px   -2.1736  -0.0111  -0.4979  -2.3877
  14 H   :2px   -1.3630   0.2066  -0.1882  -0.9155
  15 H   :3d2-   0.0375  -0.0556   0.0103   0.0673
  16 H   :3d1+   0.0168  -0.0028   0.0196   0.0856
  17 H   :3d2-   1.1279   0.2791   0.3730   0.7646
  18 H   :3d1+   0.8195   0.0760  -0.3740   0.6810

 Molecular orbitals for symmetry species 3  (B2 )
 ------------------------------------------------

    Orbital         1        2        3        4        5        6        7
   1 O   :2py    0.7954  -0.1154  -0.4127   0.4048  -0.2438  -0.4104  -0.0188
   2 O   :2py   -0.0641  -0.0240   0.1076  -0.0636  -0.0415  -0.2422   0.1107
   3 O   :2py   -0.1510  -0.6450   1.1765   0.7669  -1.7855  -1.0957   3.5958
   4 O   :2py    0.0123  -1.1670   3.2078   1.3365  -3.9270  -0.9533   2.9287
   5 O   :3d1-   0.0105   0.0014  -0.0024  -0.0098   0.0005   0.0089   0.0110
   6 O   :3d1-   0.0092  -0.0432   0.0592  -0.0029  -0.0240  -0.1052   0.2372
   7 O   :3d1-  -0.0199  -0.1884   0.3879   0.4673  -0.0126   0.3959   2.0836
   9 O   :4f1-  -0.0009  -0.0007   0.0010  -0.0052  -0.0113  -0.0068  -0.0062
  10 O   :4f3-  -0.0002   0.0133  -0.0209  -0.0224   0.0429  -0.0194  -0.0755
  11 O   :4f1-   0.0005  -0.0117   0.0197   0.0370   0.0872   0.0301   0.1515
  12 H   :1s     0.5861  -0.0056   0.0722  -0.3995   0.0229   0.2699   0.4845
  13 H   :1s    -0.0486   0.3508  -0.6443  -0.5366   0.5512   0.2837  -2.2059
  14 H   :1s    -0.1563   1.9266  -3.0367  -1.0759  -0.4343   8.8784  -9.0825
  15 H   :1s    -0.0012   3.4757  -2.8284  -0.1463   1.4201   1.6925  -1.3272
  16 H   :2py   -0.0088  -0.0018   0.0088   0.0004  -0.0025   0.0114   0.0077
  17 H   :2pz   -0.0124  -0.0000   0.0042  -0.0077   0.0084   0.0067   0.0029
  18 H   :2py   -0.0220  -0.0785   0.2183   0.0052   0.1190  -0.3910   0.5220
  19 H   :2pz   -0.0321  -0.0690   0.2009  -0.0370  -0.3127  -0.2562   0.4002
  20 H   :2py   -0.0015  -0.5868   0.4279  -0.3588   2.9539  -4.3404   2.1472
  21 H   :2pz   -0.0026  -0.3529   0.7844  -0.5944  -2.4881  -1.6460   0.5536
  22 H   :3d1-   0.0066   0.0064  -0.0121  -0.0034  -0.0023   0.0241  -0.0282
  24 H   :3d2+  -0.0032  -0.0041   0.0095   0.0033  -0.0086  -0.0126   0.0221
  25 H   :3d1-  -0.0067  -0.0043  -0.1124   0.1937   0.2516   0.3442   0.1904
  26 H   :3d0    0.0006  -0.0046  -0.0410   0.0716   0.3746  -0.0025   0.1652
  27 H   :3d2+   0.0074  -0.0049   0.0057  -0.1228   0.3201  -0.3289  -0.0929

    Orbital         8        9       10       11
   1 O   :2py   -0.4170  -0.2357  -0.5316  -0.3815
   2 O   :2py    0.0354   0.1242   0.2909   0.3694
   3 O   :2py   -0.2704   6.7092   1.7768   4.1948
   4 O   :2py    0.7884   3.0029   0.8108   0.9519
   5 O   :3d1-  -0.0053  -0.0074  -0.0038  -0.0187
   6 O   :3d1-   0.0512   0.1548   0.2507   0.3862
   7 O   :3d1-  -1.7426   1.8119  -1.6337   2.6184
   8 O   :4f3-  -0.0201   0.0107   0.0043  -0.0201
   9 O   :4f1-   0.0215   0.0119   0.0307  -0.0076
  10 O   :4f3-   0.0722  -0.1685  -0.0731   0.0467
  11 O   :4f1-  -0.1821  -0.0726  -0.1644   0.2733
  12 H   :1s     0.2837   0.1467   0.3658   0.1467
  13 H   :1s     1.9048  -3.3037   0.4073  -4.1370
  14 H   :1s    -2.9962  -2.3211  -9.0191  -5.8441
  15 H   :1s    -0.2747  -0.8779  -0.8328  -0.6833
  16 H   :2py   -0.0105   0.0484  -0.0071   0.0367
  17 H   :2pz   -0.0101  -0.0176   0.0127   0.0267
  18 H   :2py    0.0665   0.1886   0.4395   1.0450
  19 H   :2pz    0.3448   0.6639   0.6470   0.2900
  20 H   :2py    0.5201  -1.7711   3.4856   2.1094
  21 H   :2pz    1.1672   2.3495   1.3511   0.7421
  22 H   :3d1-  -0.0186  -0.0152  -0.0690  -0.0427
  23 H   :3d0   -0.0289  -0.0066  -0.0083   0.0106
  24 H   :3d2+   0.0215   0.0244   0.0117   0.0530
  25 H   :3d1-  -0.3518  -0.5138  -0.0410  -0.8537
  26 H   :3d0    0.0721  -0.9799  -0.6071   0.9536
  27 H   :3d2+  -0.3149  -0.9249   0.9781   0.3622

 Molecular orbitals for symmetry species 4  (A2 )
 ------------------------------------------------

    Orbital         1        2        3        4        5        6        7
   1 O   :3d2-   0.0069   0.0198  -0.0203  -0.0201   0.0390  -0.0238   0.0073
   2 O   :3d2-  -0.0125   0.0847   0.1035   0.0654   0.0045  -0.8726   1.3254
   3 O   :3d2-  -0.5751   1.9366   0.2782  -1.2777  -2.6773   0.8554   1.9512
   4 O   :4f2-   0.0110  -0.0214  -0.0046  -0.0081   0.0271  -0.0708  -0.0841
   5 O   :4f2-  -0.0879   0.2188   0.0441   0.0295  -0.3176   0.8977   1.6930
   6 H   :2px    0.0002   0.0355   0.0015  -0.0127  -0.0464  -0.0630   0.0174
   7 H   :2px    0.2641  -0.4915   0.0500   0.1599   2.1296  -0.1447  -2.6274
   8 H   :2px    1.6825  -1.6022  -0.6266  -0.4045   1.2852  -0.1478  -0.8855
   9 H   :3d2-  -0.0030   0.0127   0.0014  -0.0355  -0.0474   0.0522   0.0851
  10 H   :3d1+  -0.0035   0.0108  -0.0270   0.0292  -0.0374   0.0756   0.0393
  11 H   :3d2-  -0.2456   0.5504   0.4014   1.3143  -0.8945  -0.2600   0.9199
  12 H   :3d1+  -0.2072   0.3829   0.9308  -0.6569  -1.0302  -0.2082   0.7270

    Orbital         8        9       10
   1 O   :3d2-  -0.0197   0.0152  -0.0041
   2 O   :3d2-  -0.1728  -0.2675   1.6779
   3 O   :3d2-   0.2365  -1.1877   0.8392
   4 O   :4f2-  -0.0699  -0.1865  -0.1750
   5 O   :4f2-   0.2306  -0.1355   1.3087
   6 H   :2px   -0.2868  -0.8943  -0.3700
   7 H   :2px    0.1967   1.6032  -1.5993
   8 H   :2px    0.0934   0.2742  -0.1865
   9 H   :3d2-   0.4612  -0.4491   0.8458
  10 H   :3d1+  -0.6189  -0.0442   0.7651
  11 H   :3d2-  -0.4099  -0.2097   0.2265
  12 H   :3d1+   0.2749  -0.4854   0.1459

  Total CPU  time used in SIRIUS :   9.85 seconds
  Total wall time used in SIRIUS :   9.92 seconds

 
     Date and time (Darwin) : Sun Jan 21 18:48:49 2018
     Host name              : utonium.home                            


                     .---------------------------------------.
                     | End of Wave Function Section (SIRIUS) |
                     `---------------------------------------'



        *****************************************************************
        ******** Output from **PROPE input processing for ABACUS ********
        *****************************************************************



 The following molecular properties will be calculated in this run:
 ------------------------------------------------------------------

 Default print level:        0

      Direct calculation - no two-electron integrals written or read.
      Natural orbital connection is used
      for perturbation dependent basis sets.

 Center of mass dipole origin  :    0.000000    0.000000   -0.367113

 Center of mass gauge origin   :    0.000000    0.000000   -0.367113


                 .------------------------------------------------.
                 | Starting in Static Property Section (ABACUS) - |
                 `------------------------------------------------'


 
     Date and time (Darwin) : Sun Jan 21 18:48:49 2018
     Host name              : utonium.home                            


   ***************************************************************************
   ************************ FINAL RESULTS from ABACUS ************************
   ***************************************************************************


 
     Date and time (Darwin) : Sun Jan 21 18:48:49 2018
     Host name              : utonium.home                            


                             Molecular geometry (au)
                             -----------------------

 O          0.0000000000            0.0000000000           -0.4949659979
 H   _1     0.0000000000            1.4581649940            0.6474509973
 H   _2     0.0000000000           -1.4581649940            0.6474509973





                        Molecular wave function and energy
                        ----------------------------------

     Spatial symmetry   1 ( A1  )
     Spin multiplicity  1
     2 * M_S            0
     State number       1
     Total charge       0

     Total energy        -75.5098417845 au (Hartrees)
                         -2054.72731643 eV
                           -198251.0590 kJ/mol
                            -47383.1403 kcal/mol


                   Scalar Breit-Pauli relativistic corrections
                   -------------------------------------------

     Darwin correction:                          0.1969826905 au
     Mass-velocity correction:                  -0.2471789991 au

     Total relativistic correction:             -0.0501963087 au ( 0.0665%)
     Non-relativistic + relativistic energy:   -75.5600380932 au



      (Note that these corrections are NOT included in the results below.)


                                  Dipole moment
                                  -------------

                 au               Debye          C m (/(10**-30)
              0.837705           2.129233           7.102357


                             Dipole moment components
                             ------------------------

                 au               Debye          C m (/(10**-30)

      z      0.83770478         2.12923303         7.10235690


   Units:   1 a.u. =   2.54175 Debye 
            1 a.u. =   8.47835 (10**-30) C m (SI)




   Interatomic separations (in Angstrom):
   --------------------------------------

            O           H   _1      H   _2
            ------      ------      ------
 O     :    0.000000
 H   _1:    0.980244    0.000000
 H   _2:    0.980244    1.543255    0.000000


  Max    interatomic separation is    1.5433 Angstrom (    2.9163 Bohr)
  between atoms    3 and    2, "H   _2" and "H   _1".

  Min HX interatomic separation is    0.9802 Angstrom (    1.8524 Bohr)


  Bond distances (Angstrom):
  --------------------------

                  atom 1     atom 2       distance
                  ------     ------       --------
  bond distance:  H   _1     O            0.980244
  bond distance:  H   _2     O            0.980244


  Bond angles (degrees):
  ----------------------

                  atom 1     atom 2     atom 3         angle
                  ------     ------     ------         -----
  bond angle:     H   _1     O          H   _2       103.845




 CPU time statistics for ABACUS
 ------------------------------




  Total CPU  time used in ABACUS:   0.02 seconds
  Total wall time used in ABACUS:   0.02 seconds


                   .-------------------------------------------.
                   | End of Static Property Section (ABACUS) - |
                   `-------------------------------------------'

  Total CPU  time used in DALTON:  10.92 seconds
  Total wall time used in DALTON:  11.18 seconds

 
     Date and time (Darwin) : Sun Jan 21 18:48:49 2018
     Host name              : utonium.home                            
