

     ************************************************************************
     *************** Dalton - An Electronic Structure Program ***************
     ************************************************************************

    This is output from DALTON release Dalton2017.alpha (2016)
         ( Web site: http://daltonprogram.org )

   ----------------------------------------------------------------------------

    NOTE:
     
    Dalton is an experimental code for the evaluation of molecular
    properties using (MC)SCF, DFT, CI, and CC wave functions.
    The authors accept no responsibility for the performance of
    the code or for the correctness of the results.
     
    The code (in whole or part) is provided under a licence and
    is not to be reproduced for further distribution without
    the written permission of the authors or their representatives.
     
    See the home page "http://daltonprogram.org" for further information.
     
    If results obtained with this code are published,
    the appropriate citations would be both of:
     
       K. Aidas, C. Angeli, K. L. Bak, V. Bakken, R. Bast,
       L. Boman, O. Christiansen, R. Cimiraglia, S. Coriani,
       P. Dahle, E. K. Dalskov, U. Ekstroem,
       T. Enevoldsen, J. J. Eriksen, P. Ettenhuber, B. Fernandez,
       L. Ferrighi, H. Fliegl, L. Frediani, K. Hald, A. Halkier,
       C. Haettig, H. Heiberg, T. Helgaker, A. C. Hennum,
       H. Hettema, E. Hjertenaes, S. Hoest, I.-M. Hoeyvik,
       M. F. Iozzi, B. Jansik, H. J. Aa. Jensen, D. Jonsson,
       P. Joergensen, J. Kauczor, S. Kirpekar,
       T. Kjaergaard, W. Klopper, S. Knecht, R. Kobayashi, H. Koch,
       J. Kongsted, A. Krapp, K. Kristensen, A. Ligabue,
       O. B. Lutnaes, J. I. Melo, K. V. Mikkelsen, R. H. Myhre,
       C. Neiss, C. B. Nielsen, P. Norman, J. Olsen,
       J. M. H. Olsen, A. Osted, M. J. Packer, F. Pawlowski,
       T. B. Pedersen, P. F. Provasi, S. Reine, Z. Rinkevicius,
       T. A. Ruden, K. Ruud, V. Rybkin, P. Salek, C. C. M. Samson,
       A. Sanchez de Meras, T. Saue, S. P. A. Sauer,
       B. Schimmelpfennig, K. Sneskov, A. H. Steindal,
       K. O. Sylvester-Hvid, P. R. Taylor, A. M. Teale,
       E. I. Tellgren, D. P. Tew, A. J. Thorvaldsen, L. Thoegersen,
       O. Vahtras, M. A. Watson, D. J. D. Wilson, M. Ziolkowski
       and H. Agren,
       "The Dalton quantum chemistry program system",
       WIREs Comput. Mol. Sci. 2014, 4:269–284 (doi: 10.1002/wcms.1172)
     
    and
     
       Dalton, a Molecular Electronic Structure Program,
       Release Dalton2017.alpha (2016), see http://daltonprogram.org
   ----------------------------------------------------------------------------

    Authors in alphabetical order (major contribution(s) in parenthesis):

  Kestutis Aidas,           Vilnius University,           Lithuania   (QM/MM)
  Celestino Angeli,         University of Ferrara,        Italy       (NEVPT2)
  Keld L. Bak,              UNI-C,                        Denmark     (AOSOPPA, non-adiabatic coupling, magnetic properties)
  Vebjoern Bakken,          University of Oslo,           Norway      (DALTON; geometry optimizer, symmetry detection)
  Radovan Bast,             UiT The Arctic U. of Norway,  Norway      (DALTON installation and execution frameworks)
  Pablo Baudin,             University of Valencia,       Spain       (Cholesky excitation energies)
  Linus Boman,              NTNU,                         Norway      (Cholesky decomposition and subsystems)
  Ove Christiansen,         Aarhus University,            Denmark     (CC module)
  Renzo Cimiraglia,         University of Ferrara,        Italy       (NEVPT2)
  Sonia Coriani,            University of Trieste,        Italy       (CC module, MCD in RESPONS)
  Janusz Cukras,            University of Trieste,        Italy       (MChD in RESPONS)
  Paal Dahle,               University of Oslo,           Norway      (Parallelization)
  Erik K. Dalskov,          UNI-C,                        Denmark     (SOPPA)
  Thomas Enevoldsen,        Univ. of Southern Denmark,    Denmark     (SOPPA)
  Janus J. Eriksen,         Aarhus University,            Denmark     (Polarizable embedding model, TDA)
  Rasmus Faber,             University of Copenhagen,     Denmark     (Vib.avg. NMR with SOPPA, parallel AO-SOPPA)
  Berta Fernandez,          U. of Santiago de Compostela, Spain       (doublet spin, ESR in RESPONS)
  Lara Ferrighi,            Aarhus University,            Denmark     (PCM Cubic response)
  Heike Fliegl,             University of Oslo,           Norway      (CCSD(R12))
  Luca Frediani,            UiT The Arctic U. of Norway,  Norway      (PCM)
  Bin Gao,                  UiT The Arctic U. of Norway,  Norway      (Gen1Int library)
  Christof Haettig,         Ruhr-University Bochum,       Germany     (CC module)
  Kasper Hald,              Aarhus University,            Denmark     (CC module)
  Asger Halkier,            Aarhus University,            Denmark     (CC module)
  Frederik Beyer Hansen,    University of Copenhagen,     Denmark     (Parallel AO-SOPPA)
  Erik D. Hedegaard,        Univ. of Southern Denmark,    Denmark     (Polarizable embedding model, QM/MM)
  Hanne Heiberg,            University of Oslo,           Norway      (geometry analysis, selected one-electron integrals)
  Trygve Helgaker,          University of Oslo,           Norway      (DALTON; ABACUS, ERI, DFT modules, London, and much more)
  Alf Christian Hennum,     University of Oslo,           Norway      (Parity violation)
  Hinne Hettema,            University of Auckland,       New Zealand (quadratic response in RESPONS; SIRIUS supersymmetry)
  Eirik Hjertenaes,         NTNU,                         Norway      (Cholesky decomposition)
  Pi A. B. Haase,           University of Copenhagen,     Denmark     (Triplet AO-SOPPA)
  Maria Francesca Iozzi,    University of Oslo,           Norway      (RPA)
  Brano Jansik              Technical Univ. of Ostrava    Czech Rep.  (DFT cubic response)
  Hans Joergen Aa. Jensen,  Univ. of Southern Denmark,    Denmark     (DALTON; SIRIUS, RESPONS, ABACUS modules, London, and much more)
  Dan Jonsson,              UiT The Arctic U. of Norway,  Norway      (cubic response in RESPONS module)
  Poul Joergensen,          Aarhus University,            Denmark     (RESPONS, ABACUS, and CC modules)
  Maciej Kaminski,          University of Warsaw,         Poland      (CPPh in RESPONS)
  Joanna Kauczor,           Linkoeping University,        Sweden      (Complex polarization propagator (CPP) module)
  Sheela Kirpekar,          Univ. of Southern Denmark,    Denmark     (Mass-velocity & Darwin integrals)
  Wim Klopper,              KIT Karlsruhe,                Germany     (R12 code in CC, SIRIUS, and ABACUS modules)
  Stefan Knecht,            ETH Zurich,                   Switzerland (Parallel CI and MCSCF)
  Rika Kobayashi,           Australian National Univ.,    Australia   (DIIS in CC, London in MCSCF)
  Henrik Koch,              NTNU,                         Norway      (CC module, Cholesky decomposition)
  Jacob Kongsted,           Univ. of Southern Denmark,    Denmark     (Polarizable embedding model, QM/MM)
  Andrea Ligabue,           University of Modena,         Italy       (CTOCD, AOSOPPA)
  Nanna H. List             Univ. of Southern Denmark,    Denmark     (Polarizable embedding model)
  Ola B. Lutnaes,           University of Oslo,           Norway      (DFT Hessian)
  Juan I. Melo,             University of Buenos Aires,   Argentina   (LRESC, Relativistic Effects on NMR Shieldings)
  Kurt V. Mikkelsen,        University of Copenhagen,     Denmark     (MC-SCRF and QM/MM)
  Rolf H. Myhre,            NTNU,                         Norway      (Cholesky, subsystems and ECC2)
  Christian Neiss,          Univ. Erlangen-Nuernberg,     Germany     (CCSD(R12))
  Christian B. Nielsen,     University of Copenhagen,     Denmark     (QM/MM)
  Patrick Norman,           Linkoeping University,        Sweden      (Cubic response and complex frequency response in RESPONS)
  Jeppe Olsen,              Aarhus University,            Denmark     (SIRIUS CI/density modules)
  Jogvan Magnus H. Olsen,   Univ. of Southern Denmark,    Denmark     (Polarizable embedding model, QM/MM)
  Anders Osted,             Copenhagen University,        Denmark     (QM/MM)
  Martin J. Packer,         University of Sheffield,      UK          (SOPPA)
  Filip Pawlowski,          Kazimierz Wielki University,  Poland      (CC3)
  Morten N. Pedersen,       Univ. of Southern Denmark,    Denmark     (Polarizable embedding model)
  Thomas B. Pedersen,       University of Oslo,           Norway      (Cholesky decomposition)
  Patricio F. Provasi,      University of Northeastern,   Argentina   (Analysis of coupling constants in localized orbitals)
  Zilvinas Rinkevicius,     KTH Stockholm,                Sweden      (open-shell DFT, ESR)
  Elias Rudberg,            KTH Stockholm,                Sweden      (DFT grid and basis info)
  Torgeir A. Ruden,         University of Oslo,           Norway      (Numerical derivatives in ABACUS)
  Kenneth Ruud,             UiT The Arctic U. of Norway,  Norway      (DALTON; ABACUS magnetic properties and much more)
  Pawel Salek,              KTH Stockholm,                Sweden      (DALTON; DFT code)
  Claire C. M. Samson       University of Karlsruhe       Germany     (Boys localization, r12 integrals in ERI)
  Alfredo Sanchez de Meras, University of Valencia,       Spain       (CC module, Cholesky decomposition)
  Trond Saue,               Paul Sabatier University,     France      (direct Fock matrix construction)
  Stephan P. A. Sauer,      University of Copenhagen,     Denmark     (SOPPA(CCSD), SOPPA prop., AOSOPPA, vibrational g-factors)
  Bernd Schimmelpfennig,    Forschungszentrum Karlsruhe,  Germany     (AMFI module)
  Kristian Sneskov,         Aarhus University,            Denmark     (Polarizable embedding model, QM/MM)
  Arnfinn H. Steindal,      UiT The Arctic U. of Norway,  Norway      (parallel QM/MM, Polarizable embedding model)
  Casper Steinmann,         Univ. of Southern Denmark,    Denmark     (QFIT, Polarizable embedding model)
  K. O. Sylvester-Hvid,     University of Copenhagen,     Denmark     (MC-SCRF)
  Peter R. Taylor,          VLSCI/Univ. of Melbourne,     Australia   (Symmetry handling ABACUS, integral transformation)
  Andrew M. Teale,          University of Nottingham,     England     (DFT-AC, DFT-D)
  David P. Tew,             University of Bristol,        England     (CCSD(R12))
  Olav Vahtras,             KTH Stockholm,                Sweden      (triplet response, spin-orbit, ESR, TDDFT, open-shell DFT)
  David J. Wilson,          La Trobe University,          Australia   (DFT Hessian and DFT magnetizabilities)
  Hans Agren,               KTH Stockholm,                Sweden      (SIRIUS module, RESPONS, MC-SCRF solvation model)
 --------------------------------------------------------------------------------

     Date and time (Darwin) : Sun Jan 21 18:48:49 2018
     Host name              : utonium.home                            

 * Work memory size             :    64000000 =  488.28 megabytes.

 * Directories for basis set searches:
   1) /Users/andre/Desktop/dalton_fde/dalton_fde_serial/test/fde_static_vemb
   2) /Users/andre/Desktop/dalton_fde/dalton_fde_serial/basis


Compilation information
-----------------------

 Who compiled             | andre
 Host                     | utonium.home
 System                   | Darwin-15.3.0
 CMake generator          | Unix Makefiles
 Processor                | x86_64
 64-bit integers          | OFF
 MPI                      | OFF
 Fortran compiler         | /opt/local/bin/gfortran
 Fortran compiler version | GNU Fortran (MacPorts gcc5 5.4.0_0) 5.4.0
 C compiler               | /opt/local/bin/gcc
 C compiler version       | gcc (MacPorts gcc5 5.4.0_0) 5.4.0
 C++ compiler             | /opt/local/bin/g++
 C++ compiler version     | g++ (MacPorts gcc5 5.4.0_0) 5.4.0
 BLAS                     | /usr/lib/libblas.dylib
 LAPACK                   | /usr/lib/liblapack.dylib
 Static linking           | OFF
 Last Git revision        | 54c9261aad955e433fd634e8ff17ccd02b82b8ad
 Git branch               | gomesasp/fde
 Configuration time       | 2018-01-20 22:40:00.556797


   Content of the .dal input file
 ----------------------------------

*DALTON INPUT
.RUN WAVE FUNCTIONS
.RUN PROPERTIES
.DIRECT
.FDE
*FDE
.EMBPOT
EMBPOT.acc4
.PRINT
1
**PROPERTIES
**WAVE FUNCTIONS
.DFT
 LDA
*SCF INPUT
.THRESH
1.0D-10
**END OF DALTON INPUT



   Content of the .mol file
 ----------------------------

BASIS
aug-cc-pVTZ
water, testing FDE
aug-cc-pVTZ basis
Angstrom Nosymmetry Atomtypes=2
Charge=8.    Atoms=1
O    0.0000000          0.0000000         -0.2619247262
Charge=1.    Atoms=2
H    0.0000000000       0.7716276844       0.3426163129
H    0.0000000000      -0.7716276844       0.3426163129



       *******************************************************************
       *********** Output from DALTON general input processing ***********
       *******************************************************************

 --------------------------------------------------------------------------------
   Overall default print level:    0
   Print level for DALTON.STAT:    1

    AO-direct calculation (in sections where implemented)
    HERMIT 1- and 2-electron integral sections will be executed
    "Old" integral transformation used (limited to max 255 basis functions)
    Wave function sections will be executed (SIRIUS module)
    Static molecular property section will be executed (ABACUS module)
 --------------------------------------------------------------------------------
  
===========================================================================
  
  Frozen Density Embedding (FDE) Calculation setup

 * FDE print level               :     1
 * FDE Potential read from file : EMBPOT.acc4                                                 

   Enviroment effects included via the fixed potential method described in:
   A.S.P. Gomes, C. R. Jacob and L. Visscher, PCCP 10 (2008) 5353-5362.

===========================================================================
  


   ****************************************************************************
   *************** Output of molecule and basis set information ***************
   ****************************************************************************


    The two title cards from your ".mol" input:
    ------------------------------------------------------------------------
 1: water, testing FDE                                                      
 2: aug-cc-pVTZ basis                                                       
    ------------------------------------------------------------------------

  Coordinates are entered in Angstrom and converted to atomic units.
          - Conversion factor : 1 bohr = 0.52917721 A

  Atomic type no.    1
  --------------------
  Nuclear charge:   8.00000
  Number of symmetry independent centers:    1
  Number of basis sets to read;    2
  Basis set file used for this atomic type with Z =   8 :
     "/Users/andre/Desktop/dalton_fde/dalton_fde_serial/basis/aug-cc-pVTZ"

  Atomic type no.    2
  --------------------
  Nuclear charge:   1.00000
  Number of symmetry independent centers:    2
  Number of basis sets to read;    2
  Basis set file used for this atomic type with Z =   1 :
     "/Users/andre/Desktop/dalton_fde/dalton_fde_serial/basis/aug-cc-pVTZ"


                         SYMGRP: Point group information
                         -------------------------------

@    Point group: C1 


                                 Isotopic Masses
                                 ---------------

                           O          15.994915
                           H           1.007825
                           H           1.007825

                       Total mass:    18.010565 amu
                       Natural abundance:  99.730 %

 Center-of-mass coordinates (a.u.):    0.000000    0.000000   -0.367113


  Atoms and basis sets
  --------------------

  Number of atom types :    2
  Total number of atoms:    3

  Basis set used is "aug-cc-pVTZ" from the basis set library.

  label    atoms   charge   prim   cont     basis
  ----------------------------------------------------------------------
  O           1    8.0000    58    46      [11s6p3d2f|5s4p3d2f]                               
  H           2    1.0000    25    23      [6s3p2d|4s3p2d]                                    
  ----------------------------------------------------------------------
  total:      3   10.0000   108    92
  ----------------------------------------------------------------------
  Spherical harmonic basis used.

  Threshold for neglecting AO integrals:  1.00D-12


  Cartesian Coordinates (a.u.)
  ----------------------------

  Total number of coordinates:    9
  O       :     1  x   0.0000000000    2  y   0.0000000000    3  z  -0.4949659979
  H       :     4  x   0.0000000000    5  y   1.4581649940    6  z   0.6474509973
  H       :     7  x   0.0000000000    8  y  -1.4581649940    9  z   0.6474509973


   Interatomic separations (in Angstrom):
   --------------------------------------

            O           H           H     
            ------      ------      ------
 O     :    0.000000
 H     :    0.980244    0.000000
 H     :    0.980244    1.543255    0.000000


  Max    interatomic separation is    1.5433 Angstrom (    2.9163 Bohr)
  between atoms    3 and    2, "H     " and "H     ".

  Min HX interatomic separation is    0.9802 Angstrom (    1.8524 Bohr)


  Bond distances (Angstrom):
  --------------------------

                  atom 1     atom 2       distance
                  ------     ------       --------
  bond distance:  H          O            0.980244
  bond distance:  H          O            0.980244


  Bond angles (degrees):
  ----------------------

                  atom 1     atom 2     atom 3         angle
                  ------     ------     ------         -----
  bond angle:     H          O          H            103.845




 Principal moments of inertia (u*A**2) and principal axes
 --------------------------------------------------------

   IA       0.654216          0.000000    1.000000    0.000000
   IB       1.200137          0.000000    0.000000    1.000000
   IC       1.854353          1.000000    0.000000    0.000000


 Rotational constants
 --------------------

@    The molecule is planar.

               A                   B                   C

         772495.3934         421101.1936         272536.5804 MHz
           25.767673           14.046424            9.090842 cm-1


@  Nuclear repulsion energy :    8.980370271926 Hartree


                     .---------------------------------------.
                     | Starting in Integral Section (HERMIT) |
                     `---------------------------------------'



 ***************************************************************************************
 ****************** Output from **INTEGRALS input processing (HERMIT) ******************
 ***************************************************************************************


 - Using defaults, no **INTEGRALS input found

 Default print level:        1

 * Nuclear model: Point charge

 Calculation of one-electron Hamiltonian integrals.

 Center of mass  (bohr):      0.000000000000      0.000000000000     -0.367112550952
 Operator center (bohr):      0.000000000000      0.000000000000      0.000000000000
 Gauge origin    (bohr):      0.000000000000      0.000000000000      0.000000000000
 Dipole origin   (bohr):      0.000000000000      0.000000000000      0.000000000000


     ************************************************************************
     ************************** Output from HERINT **************************
     ************************************************************************



                      Nuclear contribution to dipole moments
                      --------------------------------------

                 au               Debye          C m (/(10**-30)

      x      0.00000000         0.00000000         0.00000000
      y      0.00000000         0.00000000         0.00000000
      z     -2.66482599        -6.77331162       -22.59333561


  Time used in ONEDRV     is       2.09 seconds
  Total CPU  time used in HERMIT:   2.15 seconds
  Total wall time used in HERMIT:   2.16 seconds


                        .----------------------------------.
                        | End of Integral Section (HERMIT) |
                        `----------------------------------'



                   .--------------------------------------------.
                   | Starting in Wave Function Section (SIRIUS) |
                   `--------------------------------------------'


 *** Output from Huckel module :

     Using EWMO model:          T
     Using EHT  model:          F
     Number of Huckel orbitals each symmetry:    7

 EWMO - Energy Weighted Maximum Overlap - is a Huckel type method,
        which normally is better than Extended Huckel Theory.
 Reference: Linderberg and Ohrn, Propagators in Quantum Chemistry (Wiley, 1973)

 Huckel EWMO eigenvalues for symmetry :  1
          -20.684612      -1.596791      -0.776316      -0.690581      -0.616200
           -0.239771      -0.175628

 **********************************************************************
 *SIRIUS* a direct, restricted step, second order MCSCF program       *
 **********************************************************************

 
     Date and time (Darwin) : Sun Jan 21 18:48:52 2018
     Host name              : utonium.home                            

 Title lines from ".mol" input file:
     water, testing FDE                                                      
     aug-cc-pVTZ basis                                                       

 Print level on unit LUPRI =   2 is   0
 Print level on unit LUW4  =   2 is   5

@    Restricted, closed shell Kohn-Sham DFT calculation.
 Fock matrices are calculated directly without use of integrals on disk.

 Initial molecular orbitals are obtained according to
 ".MOSTART EWMO  " input option

     Wave function specification
     ============================
@    Wave function type        --- KS-DFT ---
@    Number of closed shell electrons          10
@    Number of electrons in active shells       0
@    Total charge of the molecule               0

@    Spin multiplicity and 2 M_S                1         0
@    Total number of symmetries                 1 (point group: C1 )
@    Reference state symmetry                   1 (irrep name : A  )
 
     This is a DFT calculation of type: LDA

     Orbital specifications
     ======================
@    Abelian symmetry species          All |    1
@                                          |  A  
                                       --- |  ---
@    Occupied SCF orbitals               5 |    5
@    Secondary orbitals                 87 |   87
@    Total number of orbitals           92 |   92
@    Number of basis functions          92 |   92

     Optimization information
     ========================
@    Number of configurations                 1
@    Number of orbital rotations            435
     ------------------------------------------
@    Total number of variables              436

     Maximum number of Fock   iterations      0
     Maximum number of DIIS   iterations     60
     Maximum number of QC-SCF iterations     60
     Threshold for SCF convergence     1.00D-10
 
     This is a DFT calculation of type: LDA


 ***********************************************
 ***** DIIS acceleration of SCF iterations *****
 ***********************************************

 C1-DIIS algorithm; max error vectors =    8

 Iter      Total energy        Error norm    Delta(E)  DIIS dim.
 -----------------------------------------------------------------------------
   1  Screening settings (-IFTHRS, JTDIIS, DIFDEN, times)   -7    1    F  6.59D-01  6.60D-01
      K-S energy, electrons, error :     -8.719922892729  10.0000001346    1.35D-07
@  1    -75.3364973515        1.98477D+00   -7.53D+01    1
      Virial theorem: -V/T =      1.989656
@    MULPOP   O      -0.84; H       0.42; H       0.42; 
   1  Level shift: doubly occupied orbital energies shifted by -2.00D-01
 -----------------------------------------------------------------------------
   2  Screening settings (-IFTHRS, JTDIIS, DIFDEN, times)   -8    2    F  6.60D-01  6.61D-01
      K-S energy, electrons, error :     -8.681361711410  10.0000001657    1.66D-07
@  2    -75.4933824111        6.90228D-01   -1.57D-01    2
      Virial theorem: -V/T =      2.006228
@    MULPOP   O      -0.32; H       0.16; H       0.16; 
   2  Level shift: doubly occupied orbital energies shifted by -1.00D-01
 -----------------------------------------------------------------------------
   3  Screening settings (-IFTHRS, JTDIIS, DIFDEN, times)   -9    3    F  6.60D-01  6.64D-01
      K-S energy, electrons, error :     -8.773345320744  10.0000001721    1.72D-07
@  3    -75.5065940927        2.79321D-01   -1.32D-02    3
      Virial theorem: -V/T =      1.996687
@    MULPOP   O      -0.38; H       0.19; H       0.19; 
   3  Level shift: doubly occupied orbital energies shifted by -5.00D-02
 -----------------------------------------------------------------------------
   4  Screening settings (-IFTHRS, JTDIIS, DIFDEN, times)   -9    4    F  6.57D-01  6.58D-01
      K-S energy, electrons, error :     -8.667637234007  10.0000001692    1.69D-07
@  4    -75.5076725371        2.35212D-01   -1.08D-03    4
      Virial theorem: -V/T =      2.006336
@    MULPOP   O      -0.26; H       0.13; H       0.13; 
   4  Level shift: doubly occupied orbital energies shifted by -5.00D-02
 -----------------------------------------------------------------------------
   5  Screening settings (-IFTHRS, JTDIIS, DIFDEN, times)   -9    5    F  6.56D-01  6.58D-01
      K-S energy, electrons, error :     -8.711420579652  10.0000001706    1.71D-07
@  5    -75.5098191637        2.12103D-02   -2.15D-03    5
      Virial theorem: -V/T =      2.002191
@    MULPOP   O      -0.31; H       0.15; H       0.15; 
   5  Level shift: doubly occupied orbital energies shifted by -1.25D-02
 -----------------------------------------------------------------------------
   6  Screening settings (-IFTHRS, JTDIIS, DIFDEN, times)  -10    6    F  6.55D-01  6.57D-01
      K-S energy, electrons, error :     -8.716746070103  10.0000001707    1.71D-07
@  6    -75.5098412463        3.40954D-03   -2.21D-05    6
      Virial theorem: -V/T =      2.001777
@    MULPOP   O      -0.31; H       0.16; H       0.16; 
 -----------------------------------------------------------------------------
   7  Screening settings (-IFTHRS, JTDIIS, DIFDEN, times)  -11    7    F  6.68D-01  6.71D-01
      K-S energy, electrons, error :     -8.716034821633  10.0000001707    1.71D-07
@  7    -75.5098417843        6.62229D-05   -5.38D-07    7
      Virial theorem: -V/T =      2.001835
@    MULPOP   O      -0.31; H       0.16; H       0.16; 
 -----------------------------------------------------------------------------
   8  Screening settings (-IFTHRS, JTDIIS, DIFDEN, times)  -13    8    F  6.57D-01  6.60D-01
      K-S energy, electrons, error :     -8.716019659579  10.0000001707    1.71D-07
@  8    -75.5098417845        3.77803D-06   -2.17D-10    8
      Virial theorem: -V/T =      2.001836
@    MULPOP   O      -0.31; H       0.16; H       0.16; 
 -----------------------------------------------------------------------------
   9  Screening settings (-IFTHRS, JTDIIS, DIFDEN, times)  -14    9    F  6.72D-01  6.75D-01
      K-S energy, electrons, error :     -8.716019919910  10.0000001707    1.71D-07
@  9    -75.5098417845        4.96878D-07   -9.66D-13    8
      Virial theorem: -V/T =      2.001836
@    MULPOP   O      -0.31; H       0.16; H       0.16; 
 -----------------------------------------------------------------------------
  10  Screening settings (-IFTHRS, JTDIIS, DIFDEN, times)  -15   10    F  6.60D-01  6.62D-01
      K-S energy, electrons, error :     -8.716019833786  10.0000001707    1.71D-07
@ 10    -75.5098417845        2.68652D-08    1.71D-13    8
      Virial theorem: -V/T =      2.001836
@    MULPOP   O      -0.31; H       0.16; H       0.16; 
 -----------------------------------------------------------------------------
  11  Screening settings (-IFTHRS, JTDIIS, DIFDEN, times)  -16   11    F  6.36D-01  6.37D-01
      K-S energy, electrons, error :     -8.716019837788  10.0000001707    1.71D-07
@ 11    -75.5098417845        1.99663D-09   -1.14D-13    8
      Virial theorem: -V/T =      2.001836
@    MULPOP   O      -0.31; H       0.16; H       0.16; 
 -----------------------------------------------------------------------------
  12  Screening settings (-IFTHRS, JTDIIS, DIFDEN, times)  -16   12    F  6.31D-01  6.31D-01
      K-S energy, electrons, error :     -8.716019837993  10.0000001707    1.71D-07
@ 12    -75.5098417845        6.76195D-10    8.53D-14    8
      Virial theorem: -V/T =      2.001836
@    MULPOP   O      -0.31; H       0.16; H       0.16; 
 -----------------------------------------------------------------------------
  13  Screening settings (-IFTHRS, JTDIIS, DIFDEN, times)  -16   13    F  6.63D-01  6.64D-01
      K-S energy, electrons, error :     -8.716019838037  10.0000001707    1.71D-07
@ 13    -75.5098417845        6.45454D-11   -2.84D-14    8

@ *** DIIS converged in  13 iterations !
@     Converged SCF energy, gradient:    -75.509841784527    6.45D-11
    - total time used in SIRFCK :              0.00 seconds


 *** SCF orbital energy analysis ***

 Only the 20 lowest virtual orbital energies printed in each symmetry.

 Number of electrons :   10
 Orbital occupations :    5

 Sym       Kohn-Sham orbital energies

1 A     -18.57134413    -0.87448693    -0.43196774    -0.30326608    -0.23099404
         -0.01757126     0.01743041     0.08877080     0.10392693     0.10554612
          0.14223789     0.18435247     0.19164904     0.19711811     0.22419300
          0.24563264     0.32183524     0.36828838     0.39478542     0.48171505
          0.52231867     0.57428269     0.58785561     0.58950172     0.69126532

    E(LUMO) :    -0.01757126 au (symmetry 1)
  - E(HOMO) :    -0.23099404 au (symmetry 1)
  ------------------------------------------
    gap     :     0.21342278 au

 --- Writing SIRIFC interface file

 CPU and wall time for SCF :      22.120      22.229


                       .-----------------------------------.
                       | --- Final results from SIRIUS --- |
                       `-----------------------------------'


@    Spin multiplicity:           1
@    Spatial symmetry:            1 ( irrep  A   in C1  )
@    Total charge of molecule:    0

@    Final DFT energy:            -75.509841784527                 
@    Nuclear repulsion:             8.980370271926
@    Electronic energy:           -84.490212056453

@    Final gradient norm:           0.000000000065

 
     Date and time (Darwin) : Sun Jan 21 18:49:14 2018
     Host name              : utonium.home                            

File label for MO orbitals:  21Jan18   FOCKDIIS

 (Only coefficients > 0.0100 are printed.)

 Molecular orbitals for symmetry species 1  (A  )
 ------------------------------------------------

    Orbital         1        2        3        4        5        6        7
   1 O   :1s    -0.9790   0.0204  -0.0000   0.0029  -0.0000   0.0040  -0.0000
   2 O   :1s     0.0377  -0.8317  -0.0000  -0.3278  -0.0000  -0.1617  -0.0000
   3 O   :1s    -0.0293  -0.0045   0.0000  -0.0020  -0.0000  -0.0034  -0.0000
   4 O   :1s    -0.0187   0.0292  -0.0000  -0.2017   0.0000  -0.3682   0.0000
   5 O   :1s    -0.0033  -0.0369   0.0000  -0.0794   0.0000  -0.9159   0.0000
   6 O   :2px   -0.0000  -0.0000  -0.0000   0.0000   0.9401  -0.0000   0.0000
   7 O   :2py    0.0000   0.0000  -0.7954   0.0000  -0.0000   0.0000   0.1154
   8 O   :2pz   -0.0048  -0.1819   0.0000   0.8388  -0.0000  -0.1608  -0.0000
   9 O   :2px    0.0000  -0.0000  -0.0000   0.0000  -0.0420   0.0000  -0.0000
  10 O   :2py   -0.0000   0.0000   0.0641  -0.0000   0.0000  -0.0000   0.0240
  11 O   :2pz    0.0065   0.0063  -0.0000  -0.0557   0.0000  -0.0061   0.0000
  13 O   :2py   -0.0000   0.0000   0.1510  -0.0000  -0.0000  -0.0000   0.6450
  14 O   :2pz   -0.0031   0.0398   0.0000  -0.0784   0.0000  -0.2179   0.0000
  15 O   :2px    0.0000   0.0000   0.0000  -0.0000   0.0628   0.0000  -0.0000
  16 O   :2py   -0.0000  -0.0000  -0.0123  -0.0000   0.0000  -0.0000   1.1670
  17 O   :2pz   -0.0010  -0.0030   0.0000   0.0365   0.0000   0.1455   0.0000
  19 O   :3d1-   0.0000   0.0000  -0.0105   0.0000  -0.0000   0.0000  -0.0014
  24 O   :3d1-  -0.0000   0.0000  -0.0092  -0.0000  -0.0000  -0.0000   0.0432
  25 O   :3d0   -0.0003  -0.0045   0.0000   0.0146  -0.0000  -0.0144   0.0000
  26 O   :3d1+   0.0000  -0.0000  -0.0000   0.0000   0.0134  -0.0000   0.0000
  27 O   :3d2+  -0.0015   0.0080   0.0000   0.0054  -0.0000   0.0137  -0.0000
  29 O   :3d1-  -0.0000   0.0000   0.0199  -0.0000  -0.0000   0.0000   0.1884
  30 O   :3d0   -0.0010  -0.0008   0.0000   0.0020   0.0000  -0.0258   0.0000
  32 O   :3d2+   0.0017  -0.0033   0.0000   0.0076  -0.0000  -0.0321   0.0000
  40 O   :4f3-   0.0000  -0.0000   0.0002  -0.0000   0.0000  -0.0000  -0.0133
  42 O   :4f1-  -0.0000   0.0000  -0.0005  -0.0000  -0.0000   0.0000   0.0117
  47 H   :1s    -0.0022  -0.3798  -0.5861   0.3432  -0.0000   0.0480   0.0056
  48 H   :1s     0.0009   0.1093   0.0486  -0.0004  -0.0000   0.1207  -0.3508
  49 H   :1s     0.0028   0.1573   0.1563  -0.0845  -0.0000   0.2022  -1.9266
  50 H   :1s     0.0000   0.0015   0.0012   0.0051   0.0000   0.7101  -3.4757
  51 H   :2px   -0.0000  -0.0000  -0.0000   0.0000   0.0107  -0.0000   0.0000
  52 H   :2py    0.0008   0.0104   0.0088  -0.0091   0.0000   0.0025   0.0018
  53 H   :2pz    0.0006   0.0071   0.0124   0.0020   0.0000  -0.0006   0.0000
  54 H   :2px   -0.0000  -0.0000  -0.0000   0.0000   0.0328   0.0000  -0.0000
  55 H   :2py    0.0018   0.0109   0.0220  -0.0339   0.0000  -0.0213   0.0785
  56 H   :2pz    0.0026   0.0070   0.0321   0.0023   0.0000   0.0142   0.0690
  57 H   :2px   -0.0000  -0.0000  -0.0000   0.0000   0.0331   0.0000  -0.0000
  58 H   :2py    0.0003  -0.0045   0.0015  -0.0088   0.0000  -0.2044   0.5868
  59 H   :2pz    0.0004  -0.0043   0.0026   0.0174   0.0000  -0.1111   0.3529
  66 H   :3d1-  -0.0017   0.0030   0.0067  -0.0090  -0.0000  -0.0141   0.0043
  67 H   :3d0   -0.0004   0.0006  -0.0006  -0.0060  -0.0000  -0.0273   0.0046
  70 H   :1s    -0.0022  -0.3798   0.5861   0.3432  -0.0000   0.0480  -0.0056
  71 H   :1s     0.0009   0.1093  -0.0486  -0.0004  -0.0000   0.1207   0.3508
  72 H   :1s     0.0028   0.1573  -0.1563  -0.0845  -0.0000   0.2022   1.9266
  73 H   :1s     0.0000   0.0015  -0.0012   0.0051   0.0000   0.7101   3.4757
  74 H   :2px   -0.0000  -0.0000   0.0000   0.0000   0.0107  -0.0000  -0.0000
  75 H   :2py   -0.0008  -0.0104   0.0088   0.0091  -0.0000  -0.0025   0.0018
  76 H   :2pz    0.0006   0.0071  -0.0124   0.0020   0.0000  -0.0006  -0.0000
  77 H   :2px   -0.0000  -0.0000   0.0000   0.0000   0.0328   0.0000   0.0000
  78 H   :2py   -0.0018  -0.0109   0.0220   0.0339  -0.0000   0.0213   0.0785
  79 H   :2pz    0.0026   0.0070  -0.0321   0.0023   0.0000   0.0142  -0.0690
  80 H   :2px   -0.0000  -0.0000   0.0000   0.0000   0.0331   0.0000   0.0000
  81 H   :2py   -0.0003   0.0045   0.0015   0.0088  -0.0000   0.2044   0.5868
  82 H   :2pz    0.0004  -0.0043  -0.0026   0.0174  -0.0000  -0.1111  -0.3529
  89 H   :3d1-   0.0017  -0.0030   0.0067   0.0090  -0.0000   0.0141   0.0043
  90 H   :3d0   -0.0004   0.0006   0.0006  -0.0060  -0.0000  -0.0273  -0.0046

    Orbital         8        9       10       11       12       13       14
   2 O   :1s     0.2118  -0.0000  -0.3122   0.0000   0.0000  -0.0481  -0.0000
   3 O   :1s     0.0151  -0.0000  -0.0187  -0.0000   0.0000  -0.0043  -0.0000
   4 O   :1s    -1.7554   0.0000   0.5001   0.0000  -0.0000  -0.2204  -0.0000
   5 O   :1s    -6.6287   0.0000   1.0573   0.0000  -0.0000  -2.0338  -0.0000
   6 O   :2px    0.0000   0.3571  -0.0000   0.0000   0.0000   0.0000  -0.0000
   7 O   :2py   -0.0000   0.0000  -0.0000  -0.4127   0.4048  -0.0000  -0.0000
   8 O   :2pz    0.3515  -0.0000   0.0239   0.0000   0.0000  -0.0708  -0.0000
   9 O   :2px   -0.0000  -0.0335   0.0000   0.0000  -0.0000  -0.0000   0.0000
  10 O   :2py   -0.0000  -0.0000   0.0000   0.1076  -0.0636  -0.0000   0.0000
  11 O   :2pz   -0.0985   0.0000   0.0280   0.0000  -0.0000  -0.0016  -0.0000
  12 O   :2px    0.0000   0.1099  -0.0000  -0.0000   0.0000   0.0000  -0.0000
  13 O   :2py   -0.0000  -0.0000   0.0000   1.1765   0.7669  -0.0000  -0.0000
  14 O   :2pz   -0.5417   0.0000   0.3649   0.0000  -0.0000   0.8659   0.0000
  15 O   :2px    0.0000  -1.4218   0.0000  -0.0000   0.0000   0.0000  -0.0000
  16 O   :2py    0.0000  -0.0000   0.0000   3.2078   1.3365   0.0000  -0.0000
  17 O   :2pz   -1.4922  -0.0000  -1.2548   0.0000  -0.0000   0.9932   0.0000
  23 O   :3d2-  -0.0000   0.0000   0.0000  -0.0000   0.0000  -0.0000   0.0125
  24 O   :3d1-   0.0000  -0.0000   0.0000   0.0592  -0.0029  -0.0000   0.0000
  25 O   :3d0    0.0097   0.0000   0.0206  -0.0000  -0.0000   0.0257   0.0000
  26 O   :3d1+   0.0000   0.0278  -0.0000   0.0000   0.0000   0.0000  -0.0000
  27 O   :3d2+   0.0457  -0.0000  -0.0426  -0.0000   0.0000   0.0072   0.0000
  28 O   :3d2-  -0.0000  -0.0000   0.0000  -0.0000   0.0000  -0.0000   0.5751
  29 O   :3d1-  -0.0000  -0.0000   0.0000   0.3879   0.4673  -0.0000  -0.0000
  30 O   :3d0    0.0298  -0.0000  -0.0408  -0.0000  -0.0000   0.5619   0.0000
  31 O   :3d1+   0.0000  -0.0891   0.0000  -0.0000   0.0000   0.0000  -0.0000
  32 O   :3d2+   0.1842  -0.0000  -0.0368  -0.0000   0.0000   0.3289   0.0000
  34 O   :4f2-  -0.0000   0.0000  -0.0000   0.0000  -0.0000   0.0000  -0.0110
  40 O   :4f3-   0.0000   0.0000  -0.0000  -0.0209  -0.0224   0.0000   0.0000
  41 O   :4f2-  -0.0000  -0.0000   0.0000  -0.0000   0.0000  -0.0000   0.0879
  42 O   :4f1-  -0.0000  -0.0000   0.0000   0.0197   0.0370  -0.0000  -0.0000
  43 O   :4f0    0.0127  -0.0000  -0.0095  -0.0000   0.0000   0.0529   0.0000
  45 O   :4f2+   0.0195  -0.0000  -0.0230  -0.0000   0.0000   0.0067   0.0000
  47 H   :1s    -0.1108   0.0000   0.2105   0.0722  -0.3995   0.2011   0.0000
  48 H   :1s     0.4244  -0.0000  -0.3161  -0.6443  -0.5366  -0.0499   0.0000
  49 H   :1s     2.9490   0.0000   0.1802  -3.0367  -1.0759   0.9823   0.0000
  50 H   :1s     0.9272  -0.0000  -0.3785  -2.8284  -0.1463   0.1027   0.0000
  52 H   :2py   -0.0068   0.0000   0.0108   0.0088   0.0004  -0.0022   0.0000
  54 H   :2px   -0.0000  -0.0113  -0.0000   0.0000  -0.0000   0.0000  -0.2641
  55 H   :2py   -0.2268   0.0000   0.0990   0.2183   0.0052   0.2059   0.0000
  56 H   :2pz   -0.2182   0.0000   0.0600   0.2009  -0.0370  -0.2304  -0.0000
  57 H   :2px   -0.0000   0.2241  -0.0000   0.0000  -0.0000   0.0000  -1.6825
  58 H   :2py   -0.6173   0.0000   0.3397   0.4279  -0.3588   0.6472   0.0000
  59 H   :2pz   -0.6630   0.0000   0.3518   0.7844  -0.5944  -1.1906  -0.0000
  61 H   :3d1-   0.0138  -0.0000  -0.0068  -0.0121  -0.0034   0.0072   0.0000
  65 H   :3d2-   0.0000  -0.0120   0.0000  -0.0000   0.0000  -0.0000   0.2456
  66 H   :3d1-   0.1267  -0.0000  -0.0510  -0.1124   0.1937   0.0464  -0.0000
  67 H   :3d0    0.0412   0.0000   0.0063  -0.0410   0.0716   0.2360   0.0000
  68 H   :3d1+   0.0000  -0.0083   0.0000  -0.0000   0.0000  -0.0000   0.2072
  69 H   :3d2+  -0.0611   0.0000   0.0491   0.0057  -0.1228   0.1272   0.0000
  70 H   :1s    -0.1108   0.0000   0.2105  -0.0722   0.3995   0.2011  -0.0000
  71 H   :1s     0.4244  -0.0000  -0.3161   0.6443   0.5366  -0.0499  -0.0000
  72 H   :1s     2.9490   0.0000   0.1802   3.0367   1.0759   0.9823  -0.0000
  73 H   :1s     0.9272  -0.0000  -0.3785   2.8284   0.1463   0.1027   0.0000
  75 H   :2py    0.0068  -0.0000  -0.0108   0.0088   0.0004   0.0022   0.0000
  77 H   :2px   -0.0000  -0.0113   0.0000  -0.0000   0.0000  -0.0000   0.2641
  78 H   :2py    0.2268  -0.0000  -0.0990   0.2183   0.0052  -0.2059  -0.0000
  79 H   :2pz   -0.2182   0.0000   0.0600  -0.2009   0.0370  -0.2304  -0.0000
  80 H   :2px   -0.0000   0.2241  -0.0000  -0.0000   0.0000  -0.0000   1.6825
  81 H   :2py    0.6173  -0.0000  -0.3397   0.4279  -0.3588  -0.6472   0.0000
  82 H   :2pz   -0.6630   0.0000   0.3518  -0.7844   0.5944  -1.1906  -0.0000
  84 H   :3d1-  -0.0138   0.0000   0.0068  -0.0121  -0.0034  -0.0072  -0.0000
  88 H   :3d2-  -0.0000   0.0120  -0.0000  -0.0000   0.0000  -0.0000   0.2456
  89 H   :3d1-  -0.1267   0.0000   0.0510  -0.1124   0.1937  -0.0464  -0.0000
  90 H   :3d0    0.0412  -0.0000   0.0063   0.0410  -0.0716   0.2360   0.0000
  91 H   :3d1+   0.0000  -0.0083   0.0000   0.0000  -0.0000   0.0000  -0.2072
  92 H   :3d2+  -0.0611   0.0000   0.0491  -0.0057   0.1228   0.1272  -0.0000

    Orbital        15
   6 O   :2px    0.2288
   9 O   :2px   -0.0501
  12 O   :2px    1.5914
  15 O   :2px    2.0636
  26 O   :3d1+   0.0243
  31 O   :3d1+   0.4694
  44 O   :4f1+   0.0390
  46 O   :4f3+  -0.0726
  54 H   :2px   -0.2987
  57 H   :2px   -1.8079
  65 H   :3d2-   0.2949
  68 H   :3d1+   0.1691
  77 H   :2px   -0.2987
  80 H   :2px   -1.8079
  88 H   :3d2-  -0.2949
  91 H   :3d1+   0.1691

  Total CPU  time used in SIRIUS :  22.18 seconds
  Total wall time used in SIRIUS :  22.29 seconds

 
     Date and time (Darwin) : Sun Jan 21 18:49:14 2018
     Host name              : utonium.home                            


                     .---------------------------------------.
                     | End of Wave Function Section (SIRIUS) |
                     `---------------------------------------'



        *****************************************************************
        ******** Output from **PROPE input processing for ABACUS ********
        *****************************************************************



 The following molecular properties will be calculated in this run:
 ------------------------------------------------------------------

 Default print level:        0

      Direct calculation - no two-electron integrals written or read.
      Natural orbital connection is used
      for perturbation dependent basis sets.

 Center of mass dipole origin  :    0.000000    0.000000   -0.367113

 Center of mass gauge origin   :    0.000000    0.000000   -0.367113


                 .------------------------------------------------.
                 | Starting in Static Property Section (ABACUS) - |
                 `------------------------------------------------'


 
     Date and time (Darwin) : Sun Jan 21 18:49:14 2018
     Host name              : utonium.home                            


   ***************************************************************************
   ************************ FINAL RESULTS from ABACUS ************************
   ***************************************************************************


 
     Date and time (Darwin) : Sun Jan 21 18:49:14 2018
     Host name              : utonium.home                            


                             Molecular geometry (au)
                             -----------------------

 O          0.0000000000            0.0000000000           -0.4949659979
 H          0.0000000000            1.4581649940            0.6474509973
 H          0.0000000000           -1.4581649940            0.6474509973





                        Molecular wave function and energy
                        ----------------------------------

     Spatial symmetry   1 ( A   )
     Spin multiplicity  1
     2 * M_S            0
     State number       1
     Total charge       0

     Total energy        -75.5098417845 au (Hartrees)
                         -2054.72731643 eV
                           -198251.0590 kJ/mol
                            -47383.1403 kcal/mol


                   Scalar Breit-Pauli relativistic corrections
                   -------------------------------------------

     Darwin correction:                          0.1969826905 au
     Mass-velocity correction:                  -0.2471789991 au

     Total relativistic correction:             -0.0501963087 au ( 0.0665%)
     Non-relativistic + relativistic energy:   -75.5600380932 au



      (Note that these corrections are NOT included in the results below.)


                                  Dipole moment
                                  -------------

                 au               Debye          C m (/(10**-30)
              0.837705           2.129233           7.102357


                             Dipole moment components
                             ------------------------

                 au               Debye          C m (/(10**-30)

      x     -0.00000001        -0.00000003        -0.00000011
      y      0.00000000         0.00000001         0.00000002
      z      0.83770478         2.12923303         7.10235690


   Units:   1 a.u. =   2.54175 Debye 
            1 a.u. =   8.47835 (10**-30) C m (SI)




   Interatomic separations (in Angstrom):
   --------------------------------------

            O           H           H     
            ------      ------      ------
 O     :    0.000000
 H     :    0.980244    0.000000
 H     :    0.980244    1.543255    0.000000


  Max    interatomic separation is    1.5433 Angstrom (    2.9163 Bohr)
  between atoms    3 and    2, "H     " and "H     ".

  Min HX interatomic separation is    0.9802 Angstrom (    1.8524 Bohr)


  Bond distances (Angstrom):
  --------------------------

                  atom 1     atom 2       distance
                  ------     ------       --------
  bond distance:  H          O            0.980244
  bond distance:  H          O            0.980244


  Bond angles (degrees):
  ----------------------

                  atom 1     atom 2     atom 3         angle
                  ------     ------     ------         -----
  bond angle:     H          O          H            103.845




 CPU time statistics for ABACUS
 ------------------------------




  Total CPU  time used in ABACUS:   0.04 seconds
  Total wall time used in ABACUS:   0.04 seconds


                   .-------------------------------------------.
                   | End of Static Property Section (ABACUS) - |
                   `-------------------------------------------'

  Total CPU  time used in DALTON:  24.37 seconds
  Total wall time used in DALTON:  24.69 seconds

 
     Date and time (Darwin) : Sun Jan 21 18:49:14 2018
     Host name              : utonium.home                            
