

     ************************************************************************
     *************** Dalton - An Electronic Structure Program ***************
     ************************************************************************

    This is output from DALTON (Release Dalton2013 patch 0)
   ----------------------------------------------------------------------------
    NOTE:
     
    Dalton is an experimental code for the evaluation of molecular
    properties using (MC)SCF, DFT, CI, and CC wave functions.
    The authors accept no responsibility for the performance of
    the code or for the correctness of the results.
     
    The code (in whole or part) is provided under a licence and
    is not to be reproduced for further distribution without
    the written permission of the authors or their representatives.
     
    See the home page "http://daltonprogram.org" for further information.
     
    If results obtained with this code are published,
    the appropriate citations would be both of:
     
       K. Aidas, C. Angeli, K. L. Bak, V. Bakken, R. Bast,
       L. Boman, O. Christiansen, R. Cimiraglia, S. Coriani,
       P. Dahle, E. K. Dalskov, U. Ekstroem, T. Enevoldsen,
       J. J. Eriksen, P. Ettenhuber, B. Fernandez, L. Ferrighi,
       H. Fliegl, L. Frediani, K. Hald, A. Halkier, C. Haettig,
       H. Heiberg, T. Helgaker, A. C. Hennum, H. Hettema,
       E. Hjertenaes, S. Hoest, I.-M. Hoeyvik, M. F. Iozzi,
       B. Jansik, H. J. Aa. Jensen, D. Jonsson, P. Joergensen,
       J. Kauczor, S. Kirpekar, T. Kjaergaard, W. Klopper,
       S. Knecht, R. Kobayashi, H. Koch, J. Kongsted, A. Krapp,
       K. Kristensen, A. Ligabue, O. B. Lutnaes, J. I. Melo,
       K. V. Mikkelsen, R. H. Myhre, C. Neiss, C. B. Nielsen,
       P. Norman, J. Olsen, J. M. H. Olsen, A. Osted,
       M. J. Packer, F. Pawlowski, T. B. Pedersen, P. F. Provasi,
       S. Reine, Z. Rinkevicius, T. A. Ruden, K. Ruud, V. Rybkin,
       P. Salek, C. C. M. Samson, A. Sanchez de Meras, T. Saue,
       S. P. A. Sauer, B. Schimmelpfennig, K. Sneskov,
       A. H. Steindal, K. O. Sylvester-Hvid, P. R. Taylor,
       A. M. Teale, E. I. Tellgren, D. P. Tew, A. J. Thorvaldsen,
       L. Thoegersen, O. Vahtras, M. A. Watson, D. J. D. Wilson,
       M. Ziolkowski and H. Agren.
       The Dalton quantum chemistry program system.
       WIREs Comput. Mol. Sci. 2013. doi: 10.1002/wcms.1172
    
    and
    
       Dalton, a Molecular Electronic Structure Program,
       Release DALTON2013.0 (2013), see http://daltonprogram.org
   ----------------------------------------------------------------------------

    Authors in alphabetical order (major contribution(s) in parenthesis):

  Kestutis Aidas,           Vilnius University,           Lithuania   (QM/MM)
  Celestino Angeli,         University of Ferrara,        Italy       (NEVPT2)
  Keld L. Bak,              UNI-C,                        Denmark     (AOSOPPA, non-adiabatic coupling, magnetic properties)
  Vebjoern Bakken,          University of Oslo,           Norway      (DALTON; geometry optimizer, symmetry detection)
  Radovan Bast,             KTH Stockholm                 Sweden      (DALTON installation and execution frameworks)
  Linus Boman,              NTNU,                         Norway      (Cholesky decomposition and subsystems)
  Ove Christiansen,         Aarhus University,            Denmark     (CC module)
  Renzo Cimiraglia,         University of Ferrara,        Italy       (NEVPT2)
  Sonia Coriani,            University of Trieste,        Italy       (CC module, MCD in RESPONS)
  Paal Dahle,               University of Oslo,           Norway      (Parallelization)
  Erik K. Dalskov,          UNI-C,                        Denmark     (SOPPA)
  Thomas Enevoldsen,        Univ. of Southern Denmark,    Denmark     (SOPPA)
  Janus J. Eriksen,         Aarhus University,            Denmark     (PE-MP2/SOPPA, TDA)
  Berta Fernandez,          U. of Santiago de Compostela, Spain       (doublet spin, ESR in RESPONS)
  Lara Ferrighi,            Aarhus University,            Denmark     (PCM Cubic response)
  Heike Fliegl,             University of Oslo,           Norway      (CCSD(R12))
  Luca Frediani,            UiT The Arctic U. of Norway,  Norway      (PCM)
  Bin Gao,                  UiT The Arctic U. of Norway,  Norway      (Gen1Int library)
  Christof Haettig,         Ruhr-University Bochum,       Germany     (CC module)
  Kasper Hald,              Aarhus University,            Denmark     (CC module)
  Asger Halkier,            Aarhus University,            Denmark     (CC module)
  Hanne Heiberg,            University of Oslo,           Norway      (geometry analysis, selected one-electron integrals)
  Trygve Helgaker,          University of Oslo,           Norway      (DALTON; ABACUS, ERI, DFT modules, London, and much more)
  Alf Christian Hennum,     University of Oslo,           Norway      (Parity violation)
  Hinne Hettema,            University of Auckland,       New Zealand (quadratic response in RESPONS; SIRIUS supersymmetry)
  Eirik Hjertenaes,         NTNU,                         Norway      (Cholesky decomposition)
  Maria Francesca Iozzi,    University of Oslo,           Norway      (RPA)
  Brano Jansik              Technical Univ. of Ostrava    Czech Rep.  (DFT cubic response)
  Hans Joergen Aa. Jensen,  Univ. of Southern Denmark,    Denmark     (DALTON; SIRIUS, RESPONS, ABACUS modules, London, and much more)
  Dan Jonsson,              UiT The Arctic U. of Norway,  Norway      (cubic response in RESPONS module)
  Poul Joergensen,          Aarhus University,            Denmark     (RESPONS, ABACUS, and CC modules)
  Joanna Kauczor,           Linkoeping University,        Sweden      (Complex polarization propagator (CPP) module)
  Sheela Kirpekar,          Univ. of Southern Denmark,    Denmark     (Mass-velocity & Darwin integrals)
  Wim Klopper,              KIT Karlsruhe,                Germany     (R12 code in CC, SIRIUS, and ABACUS modules)
  Stefan Knecht,            ETH Zurich,                   Switzerland (Parallel CI and MCSCF)
  Rika Kobayashi,           Australian National Univ.,    Australia   (DIIS in CC, London in MCSCF)
  Henrik Koch,              NTNU,                         Norway      (CC module, Cholesky decomposition)
  Jacob Kongsted,           Univ. of Southern Denmark,    Denmark     (Polarizable embedding, QM/MM)
  Andrea Ligabue,           University of Modena,         Italy       (CTOCD, AOSOPPA)
  Ola B. Lutnaes,           University of Oslo,           Norway      (DFT Hessian)
  Juan I. Melo,             University of Buenos Aires,   Argentina   (LRESC, Relativistic Effects on NMR Shieldings)
  Kurt V. Mikkelsen,        University of Copenhagen,     Denmark     (MC-SCRF and QM/MM)
  Rolf H. Myhre,            NTNU,                         Norway      (Cholesky, subsystems and ECC2)
  Christian Neiss,          Univ. Erlangen-Nuernberg,     Germany     (CCSD(R12))
  Christian B. Nielsen,     University of Copenhagen,     Denmark     (QM/MM)
  Patrick Norman,           Linkoeping University,        Sweden      (Cubic response and complex response in RESPONS)
  Jeppe Olsen,              Aarhus University,            Denmark     (SIRIUS CI/density modules)
  Jogvan Magnus H. Olsen,   Univ. of Southern Denmark,    Denmark     (Polarizable embedding, PE library, QM/MM)
  Anders Osted,             Copenhagen University,        Denmark     (QM/MM)
  Martin J. Packer,         University of Sheffield,      UK          (SOPPA)
  Filip Pawlowski,          Kazimierz Wielki University   Poland      (CC3)
  Thomas B. Pedersen,       University of Oslo,           Norway      (Cholesky decomposition)
  Patricio F. Provasi,      University of Northeastern,   Argentina   (Analysis of coupling constants in localized orbitals)
  Zilvinas Rinkevicius,     KTH Stockholm,                Sweden      (open-shell DFT, ESR)
  Elias Rudberg,            KTH Stockholm,                Sweden      (DFT grid and basis info)
  Torgeir A. Ruden,         University of Oslo,           Norway      (Numerical derivatives in ABACUS)
  Kenneth Ruud,             UiT The Arctic U. of Norway,  Norway      (DALTON; ABACUS magnetic properties and  much more)
  Pawel Salek,              KTH Stockholm,                Sweden      (DALTON; DFT code)
  Claire C. M. Samson       University of Karlsruhe       Germany     (Boys localization, r12 integrals in ERI)
  Alfredo Sanchez de Meras, University of Valencia,       Spain       (CC module, Cholesky decomposition)
  Trond Saue,               Paul Sabatier University,     France      (direct Fock matrix construction)
  Stephan P. A. Sauer,      University of Copenhagen,     Denmark     (SOPPA(CCSD), SOPPA prop., AOSOPPA, vibrational g-factors)
  Bernd Schimmelpfennig,    Forschungszentrum Karlsruhe,  Germany     (AMFI module)
  Kristian Sneskov,         Aarhus University,            Denmark     (QM/MM, PE-CC)
  Arnfinn H. Steindal,      UiT The Arctic U. of Norway,  Norway      (parallel QM/MM)
  K. O. Sylvester-Hvid,     University of Copenhagen,     Denmark     (MC-SCRF)
  Peter R. Taylor,          VLSCI/Univ. of Melbourne,     Australia   (Symmetry handling ABACUS, integral transformation)
  Andrew M. Teale,          University of Nottingham,     England     (DFT-AC, DFT-D)
  David P. Tew,             University of Bristol,        England     (CCSD(R12))
  Olav Vahtras,             KTH Stockholm,                Sweden      (triplet response, spin-orbit, ESR, TDDFT, open-shell DFT)
  David J. Wilson,          La Trobe University,          Australia   (DFT Hessian and DFT magnetizabilities)
  Hans Agren,               KTH Stockholm,                Sweden      (SIRIUS module, RESPONS, MC-SCRF solvation model)
 --------------------------------------------------------------------------------

     Date and time (Linux)  : Sun Sep  8 20:39:11 2013
     Host name              : lpqlx131.ups-tlse.fr                    

 * Work memory size             :    64000000 =  488.28 megabytes.

 * Directories for basis set searches:
   1) /home/bast/DALTON-2013.0-Source/build/test_rsp_mnf
   2) /home/bast/DALTON-2013.0-Source/build/basis


Compilation information
-----------------------

 Who compiled             | bast
 Host                     | lpqlx131.ups-tlse.fr
 System                   | Linux-3.8.5-201.fc18.x86_64
 CMake generator          | Unix Makefiles
 Processor                | x86_64
 64-bit integers          | OFF
 MPI                      | OFF
 Fortran compiler         | /usr/bin/gfortran
 Fortran compiler version | GNU Fortran (GCC) 4.7.2 20121109 (Red Hat 4.7.2-8)
 C compiler               | /usr/bin/gcc
 C compiler version       | gcc (GCC) 4.7.2 20121109 (Red Hat 4.7.2-8)
 C++ compiler             | /usr/bin/g++
 C++ compiler version     | g++ (GCC) 4.7.2 20121109 (Red Hat 4.7.2-8)
 Static linking           | OFF
 Last Git revision        | f34203295a86316e27f9e7b44f9b6769c4a046c0
 Configuration time       | 2013-09-08 20:31:27.952056


   Content of the .dal input file
 ----------------------------------

**DALTON INPUT                                    
.RUN RESPONSE                                     
**INTEGRALS                                       
.MNF-SO                                           
!.PRINT                                           
!6                                                
**WAVE FUNCTIONS                                  
.MCSCF                                            
*CONFIGURATION INPUT                              
.SYMMETRY                                         
 1                                                
.SPIN MULT                                        
 1                                                
.INACTIVE SPACE                                   
 3 1 1 0 2 0 0 0                                  
.ELECTRONS                                        
 2                                                
.CAS SPACE                                        
 0 0 0 0 0 1 1 0                                  
*CI VECTOR                                        
.PLUS COMBINATIONS                                
*OPTIMIZATION                                     
.DETERMINANTS                                     
**RESPONSE                                        
.TRPFLG                                           
*LINEAR                                           
.SINGLE RESIDUE                                   
.PROPRT                                           
Z1MNF-SO                                          
.ROOTS                                            
 0 0 0 1 0 0 0 0                                  
**END OF DALTON INPUT                             


   Content of the .mol file
 ----------------------------

ATOMBASIS                                                                      
AMFI linear response spin-orbit                                                
Note: only spherical GTOs allowed with AMFI                                    
    1    3  X  Y  Z     1.D-12                                                 
        8.    1 Basis=ano-1 3  2  1  0                                         
O      0.00000   0.00000   1.14050                                             
O      0.00000   0.00000  -1.14050                                             


       *******************************************************************
       *********** Output from DALTON general input processing ***********
       *******************************************************************

 --------------------------------------------------------------------------------
   Overall default print level:    0
   Print level for DALTON.STAT:    1

    HERMIT 1- and 2-electron integral sections will be executed
    "Old" integral transformation used (limited to max 255 basis functions)
    Wave function sections will be executed (SIRIUS module)
    Dynamic molecular response properties section will be executed (RESPONSE module)
 --------------------------------------------------------------------------------


   ****************************************************************************
   *************** Output of molecule and basis set information ***************
   ****************************************************************************


    The two title cards from your ".mol" input:
    ------------------------------------------------------------------------
 1: AMFI linear response spin-orbit                                         
 2: Note: only spherical GTOs allowed with AMFI                             
    ------------------------------------------------------------------------

  Atomic type no.    1
  --------------------
  Nuclear charge:   8.00000
  Number of symmetry independent centers:    1
  Number of basis sets to read;    2
  The basis set is "ano-1 3  2  1  0" from the basis set library.
  Basis set file used for this atomic type with Z =   8 :
     "/home/bast/DALTON-2013.0-Source/build/basis/ano-1"


                         SYMGRP: Point group information
                         -------------------------------

Point group: D2h

   * The point group was generated by:

      Reflection in the yz-plane
      Reflection in the xz-plane
      Reflection in the xy-plane

   * Group multiplication table

        |  E   C2z  C2y  C2x   i   Oxy  Oxz  Oyz
   -----+----------------------------------------
     E  |  E   C2z  C2y  C2x   i   Oxy  Oxz  Oyz
    C2z | C2z   E   C2x  C2y  Oxy   i   Oyz  Oxz
    C2y | C2y  C2x   E   C2z  Oxz  Oyz   i   Oxy
    C2x | C2x  C2y  C2z   E   Oyz  Oxz  Oxy   i 
     i  |  i   Oxy  Oxz  Oyz   E   C2z  C2y  C2x
    Oxy | Oxy   i   Oyz  Oxz  C2z   E   C2x  C2y
    Oxz | Oxz  Oyz   i   Oxy  C2y  C2x   E   C2z
    Oyz | Oyz  Oxz  Oxy   i   C2x  C2y  C2z   E 

   * Character table

        |  E   C2z  C2y  C2x   i   Oxy  Oxz  Oyz
   -----+----------------------------------------
    Ag  |   1    1    1    1    1    1    1    1
    B3u |   1   -1   -1    1   -1    1    1   -1
    B2u |   1   -1    1   -1   -1    1   -1    1
    B1g |   1    1   -1   -1    1    1   -1   -1
    B1u |   1    1   -1   -1   -1   -1    1    1
    B2g |   1   -1    1   -1    1   -1    1   -1
    B3g |   1   -1   -1    1    1   -1   -1    1
    Au  |   1    1    1    1   -1   -1   -1   -1

   * Direct product table

        | Ag   B3u  B2u  B1g  B1u  B2g  B3g  Au 
   -----+----------------------------------------
    Ag  | Ag   B3u  B2u  B1g  B1u  B2g  B3g  Au 
    B3u | B3u  Ag   B1g  B2u  B2g  B1u  Au   B3g
    B2u | B2u  B1g  Ag   B3u  B3g  Au   B1u  B2g
    B1g | B1g  B2u  B3u  Ag   Au   B3g  B2g  B1u
    B1u | B1u  B2g  B3g  Au   Ag   B3u  B2u  B1g
    B2g | B2g  B1u  Au   B3g  B3u  Ag   B1g  B2u
    B3g | B3g  Au   B1u  B2g  B2u  B1g  Ag   B3u
    Au  | Au   B3g  B2g  B1u  B1g  B2u  B3u  Ag 


                                 Isotopic Masses
                                 ---------------

                           O   _1     15.994915
                           O   _2     15.994915

                       Total mass:    31.989830 amu
                       Natural abundance:  99.521 %

 Center-of-mass coordinates (a.u.):    0.000000    0.000000    0.000000


  Atoms and basis sets
  --------------------

  Number of atom types :    1
  Total number of atoms:    2

  label    atoms   charge   prim   cont     basis
  ----------------------------------------------------------------------
  O           2    8.0000    61    14      [14s9p4d|3s2p1d]                                   
  ----------------------------------------------------------------------
  total:      2   16.0000   122    28
  ----------------------------------------------------------------------
  Spherical harmonic basis used.

  Threshold for neglecting AO integrals:  1.00D-12


  Cartesian Coordinates (a.u.)
  ----------------------------

  Total number of coordinates:    6
  O   / 1 :     1  x   0.0000000000    2  y   0.0000000000    3  z   1.1405000000
  O   / 2 :     4  x   0.0000000000    5  y   0.0000000000    6  z  -1.1405000000


  Symmetry Coordinates
  --------------------

  Number of coordinates in each symmetry:     1    1    1    0    1    1    1    0

  Symmetry  Ag  ( 1)

    1   O     z    [  3  -    6 ]/2

  Symmetry  B3u ( 2)

    2   O     x    [  1  +    4 ]/2

  Symmetry  B2u ( 3)

    3   O     y    [  2  +    5 ]/2

  Symmetry  B1u ( 5)

    4   O     z    [  3  +    6 ]/2

  Symmetry  B2g ( 6)

    5   O     x    [  1  -    4 ]/2

  Symmetry  B3g ( 7)

    6   O     y    [  2  -    5 ]/2


   Interatomic separations (in Angstrom):
   --------------------------------------

            O   _1      O   _2
            ------      ------
 O   _1:    0.000000
 O   _2:    1.207053    0.000000


  Max    interatomic separation is    1.2071 Angstrom (    2.2810 Bohr)
  between atoms    2 and    1, "O   _2" and "O   _1".

  Min YX interatomic separation is    1.2071 Angstrom (    2.2810 Bohr)


  Bond distances (Angstrom):
  --------------------------

                  atom 1     atom 2       distance
                  ------     ------       --------
  bond distance:  O   _2     O   _1       1.207053




 Principal moments of inertia (u*A**2) and principal axes
 --------------------------------------------------------

   IA       0.000000          0.000000    0.000000    1.000000
   IB      11.652115          0.000000    1.000000    0.000000
   IC      11.652115          1.000000    0.000000    0.000000


 Rotational constants
 --------------------

 The molecule is linear.

               B =        43372.30 MHz     (    1.446744 cm-1)


@  Nuclear repulsion energy :   28.057869355546 Hartree


  Symmetry Orbitals
  -----------------

  Number of orbitals in each symmetry:           7    3    3    1    7    3    3    1


  Symmetry  Ag ( 1)

    1     O        1s         1 +    2
    2     O        1s         3 +    4
    3     O        1s         5 +    6
    4     O        2pz       11 -   12
    5     O        2pz       17 -   18
    6     O        3d0       23 +   24
    7     O        3d2+      27 +   28


  Symmetry  B3u( 2)

    8     O        2px        7 +    8
    9     O        2px       13 +   14
   10     O        3d1+      25 -   26


  Symmetry  B2u( 3)

   11     O        2py        9 +   10
   12     O        2py       15 +   16
   13     O        3d1-      21 -   22


  Symmetry  B1g( 4)

   14     O        3d2-      19 +   20


  Symmetry  B1u( 5)

   15     O        1s         1 -    2
   16     O        1s         3 -    4
   17     O        1s         5 -    6
   18     O        2pz       11 +   12
   19     O        2pz       17 +   18
   20     O        3d0       23 -   24
   21     O        3d2+      27 -   28


  Symmetry  B2g( 6)

   22     O        2px        7 -    8
   23     O        2px       13 -   14
   24     O        3d1+      25 +   26


  Symmetry  B3g( 7)

   25     O        2py        9 -   10
   26     O        2py       15 -   16
   27     O        3d1-      21 +   22


  Symmetry  Au ( 8)

   28     O        3d2-      19 -   20

  Symmetries of electric field:  B3u(2)  B2u(3)  B1u(5)

  Symmetries of magnetic field:  B3g(7)  B2g(6)  B1g(4)


                     .---------------------------------------.
                     | Starting in Integral Section (HERMIT) |
                     `---------------------------------------'



    *************************************************************************
    ****************** Output from HERMIT input processing ******************
    *************************************************************************


 Default print level:        1

 * Nuclear model: Point charge

 Calculation of one- and two-electron Hamiltonian integrals.

 The following one-electron property integrals are calculated as requested:
          - overlap integrals
          - Mean field spin-orbit integrals

 Center of mass  (bohr):      0.000000000000      0.000000000000      0.000000000000
 Operator center (bohr):      0.000000000000      0.000000000000      0.000000000000
 Gauge origin    (bohr):      0.000000000000      0.000000000000      0.000000000000
 Dipole origin   (bohr):      0.000000000000      0.000000000000      0.000000000000


     ************************************************************************
     ************************** Output from HERINT **************************
     ************************************************************************

SO-integrals are calculated for  O: [He]2s^2 2p^4             

 Threshold for neglecting two-electron integrals:  1.00D-12
 Number of two-electron integrals written:       10381 ( 12.6% )
 Megabytes written:                              0.124

 >>>  Time used in TWOINT     is   0.27 seconds
 >>>> Total CPU  time used in HERMIT:   0.32 seconds
 >>>> Total wall time used in HERMIT:   0.32 seconds


                        .----------------------------------.
                        | End of Integral Section (HERMIT) |
                        `----------------------------------'



                   .--------------------------------------------.
                   | Starting in Wave Function Section (SIRIUS) |
                   `--------------------------------------------'


 *** Output from Huckel module :

     Using EWMO model:          F
     Using EHT  model:          T
     Number of Huckel orbitals each symmetry:    3    1    1    0    3    1    1    0

 Huckel EHT eigenvalues for symmetry :  1
          -20.692822      -1.610593      -0.632918

 Huckel EHT eigenvalues for symmetry :  2
           -0.728576

 Huckel EHT eigenvalues for symmetry :  3
           -0.728576

 Huckel EHT eigenvalues for symmetry :  5
          -20.693781      -1.090207      -0.374680

 Huckel EHT eigenvalues for symmetry :  6
           -0.503824

 Huckel EHT eigenvalues for symmetry :  7
           -0.503824

 **********************************************************************
 *SIRIUS* a direct, restricted step, second order MCSCF program       *
 **********************************************************************

 
     Date and time (Linux)  : Sun Sep  8 20:39:11 2013
     Host name              : lpqlx131.ups-tlse.fr                    

 Title lines from ".mol" input file:
     AMFI linear response spin-orbit                                         
     Note: only spherical GTOs allowed with AMFI                             

 Print level on unit LUPRI =   2 is   0
 Print level on unit LUW4  =   2 is   5

@    MC-SCF optimization.

@    Multi-configurational response calculation.
@              Type: complete active space calculation (CAS).

 Initial molecular orbitals are obtained according to
 ".MOSTART EHT   " input option

     Wave function specification
     ============================
@    For the wave function of type :      >>> MC-SCF <<<
@    Number of closed shell electrons          14
@    Number of electrons in active shells       2
@    Total charge of the molecule               0

@    Spin multiplicity and 2 M_S                1         0
     Total number of symmetries                 8
@    Reference state symmetry                   1

     Orbital specifications
     ======================
     Abelian symmetry species          All |    1    2    3    4    5    6    7    8
                                       --- |  ---  ---  ---  ---  ---  ---  ---  ---
@    Inactive orbitals                   7 |    3    1    1    0    2    0    0    0
@    Active orbitals                     2 |    0    0    0    0    0    1    1    0
     Secondary orbitals                 19 |    4    2    2    1    5    2    2    1
     Total number of orbitals           28 |    7    3    3    1    7    3    3    1
     Number of basis functions          28 |    7    3    3    1    7    3    3    1

     Optimization information
     ========================
@    Number of determinants                   2
@    Number of orbital rotations             30
     ------------------------------------------
@    Total number of variables               32

     Maximum number of macro iterations      25
     Maximum number of micro iterations     600
     Threshold for MCSCF gradient      1.00D-05
     Number of initial trial vectors          1
     Number of initial CI iterations          3
     Number of simultaneous trial vectors     1

@    This calculation converges to the lowest state for the specified symmetry and spin species.

     Maximum number of NEO/NR iterations  24


        SIRIUS MCSCF optimization (SIROPT)
 ================================================



 <<<<< Output from SIRIUS CI module (CICTL) >>>>>




 Integral transformation: Total CPU and WALL times (sec)       0.001       0.001
     (Precalculated two-electron integrals are transformed to P-supermatrix elements.
      Threshold for discarding integrals :  1.00D-12 )


 >>> SIRCI.CIST1: plus combination of all degenerate
                 configurations is used as start vectors.


 (CIST1)  2 lowest diagonal elements:

 Element no. Config.no.    Active energy      Total energy

         1 :          1     -1.7728885151   -149.3511003746
         2 :          2     -1.7728885151   -149.3511003746


 Convergence threshold for CI optimization :     0.00000500


 The requested root number is now converged.


 *** CI converged in  1 iterations.



 CI energies and residuals:
    1     -149.326557485343898       2.22D-16


 Final CI energy:     -149.326557485343898

   <<< OUTPUT FROM SIRCNO >>>    Keyword = FD+NO 



 <<< MACRO ITERATION  1 >>>
 --------------------------

 Integral transformation: Total CPU and WALL times (sec)       0.002       0.002

 Total MCSCF energy       :          -149.326557485343926  (MACRO    1)

 - Nuclear repulsion      :            28.057869355545812
 - Inactive energy        :          -175.636081214999990
 - Active energy          :            -1.748345625889767

 Norm of total gradient   :             2.368923451892
 -    of CI gradient      :             0.000000000000
 -    of orbital gradient :             2.368923451892
      Virial theorem: -V/T =      2.003979
@      MULPOP O   _1  0.00; O   _2  0.00; 

 Residual norm when dim(red L) =   4
 NEO root     CSF        orbital          total
    1     0.00000000     0.11460644     0.11460644 converged

 (NEONEX) NEO vector is converged.

   <<< OUTPUT FROM SIRCNO >>>    Keyword = FD+NO 



 <<< MACRO ITERATION  2 >>>
 --------------------------

 Integral transformation: Total CPU and WALL times (sec)       0.002       0.002

 Total MCSCF energy       :          -149.554189295064646  (MACRO    2)

 - Nuclear repulsion      :            28.057869355545812
 - Inactive energy        :          -176.072877761394636
 - Active energy          :            -1.539180889215832

 Norm of total gradient   :             0.153018955538
 -    of CI gradient      :             0.000000000000
 -    of orbital gradient :             0.153018955538
      Virial theorem: -V/T =      2.001274
@      MULPOP O   _1 -0.00; O   _2 -0.00; 

 Residual norm when dim(red L) =   4
 NEO root     CSF        orbital          total
    1     0.00000000     0.00117628     0.00117628 converged

 (NEONEX) NEO vector is converged.

   <<< OUTPUT FROM SIRCNO >>>    Keyword = FD+NO 



 <<< MACRO ITERATION  3 >>>
 --------------------------

 Integral transformation: Total CPU and WALL times (sec)       0.001       0.001

 Total MCSCF energy       :          -149.555462989559004  (MACRO    3)

 - Nuclear repulsion      :            28.057869355545812
 - Inactive energy        :          -176.092265050180316
 - Active energy          :            -1.521067294924511

 Norm of total gradient   :             0.001149412876
 -    of CI gradient      :             0.000000000000
 -    of orbital gradient :             0.001149412876
      Virial theorem: -V/T =      1.999887
@      MULPOP O   _1 -0.00; O   _2 -0.00; 

 Residual norm when dim(red L) =   4
 NEO root     CSF        orbital          total
    1     0.00000000     0.00000692     0.00000692 converged

 (NEONEX) NEO vector is converged.

   <<< OUTPUT FROM SIRCNO >>>    Keyword = FD+NO 



 <<< MACRO ITERATION  4 >>>
 --------------------------

 Integral transformation: Total CPU and WALL times (sec)       0.002       0.002

 Total MCSCF energy       :          -149.555463035716343  (MACRO    4)

 - Nuclear repulsion      :            28.057869355545812
 - Inactive energy        :          -176.092343592189081
 - Active energy          :            -1.520988799073091

 Norm of total gradient   :             0.000006915489
 -    of CI gradient      :             0.000000000000
 -    of orbital gradient :             0.000006915489
      Virial theorem: -V/T =      1.999884
@      MULPOP O   _1 -0.00; O   _2 -0.00; 

 *** Optimization control: MCSCF converged ***
     Number of macro iterations used            4
     Number of micro iterations used            9
     Total number of CPU seconds used         0.02

 >>>> CPU and wall time for MCSCF :       0.017       0.017


                     .----------------------------------------.
                     | >>> SIRIUS OPTIMIZATION STATISTICS <<< |
                     `----------------------------------------'


 
     Date and time (Linux)  : Sun Sep  8 20:39:11 2013
     Host name              : lpqlx131.ups-tlse.fr                    


  ITER ITMIC     EMCSCF           GRDNRM        RATIO      STPLNG
 ---------------------------------------------------------------------
    1    3   -149.326557485344   2.3689234519  0.000000   0.2638582140
    2    3   -149.554189295065   0.1530189555  0.988004   0.0199328744
    3    3   -149.555462989559   0.0011494129  1.000729   0.0001259943
    4    0   -149.555463035716   0.0000069155  1.000001   0.0000000000


  ITER  INDGCM  GCIMAX      GCINRM     INDGOM  GOBMAX      GOBNRM      GRDNRM
 ------------------------------------------------------------------------------
    1      1   -0.000000    0.000000     17    1.068743    2.368923    2.368923
    2      1   -0.000000    0.000000     16   -0.053804    0.153019    0.153019
    3      1   -0.000000    0.000000     18    0.000654    0.001149    0.001149
    4      2   -0.000000    0.000000     23    0.000004    0.000007    0.000007


  ITER ITMIC NCLIN NOLIN   TIMMAC    TIMITR    TIMMIC    TIMLIN    TIMMIC/ITMIC
 ------------------------------------------------------------------------------

    1     3     0     3      0.00      0.00      0.00      0.00      0.00
    2     3     0     3      0.00      0.00      0.00      0.00      0.00
    3     3     0     3      0.00      0.00      0.00      0.00      0.00
    4     0     0     0      0.00      0.00      0.00      0.00


 ITER         EMY                 EACTIV              EMCSCF

    1   -175.636081215000     -1.748345625890   -149.326557485344
    2   -176.072877761395     -1.539180889216   -149.554189295065
    3   -176.092265050180     -1.521067294925   -149.555462989559
    4   -176.092343592189     -1.520988799073   -149.555463035716


 ITER         DEPRED              DEACT               RATIO

    1      0.000000000000      0.000000000000      0.000000000000
    2     -0.230395730660     -0.227631809721      0.988003593071
    3     -0.001272767216     -0.001273694494      1.000728553109
    4     -0.000000046157     -0.000000046157      1.000001252174


 ITER    BETA           GAMMA             STPLNG              RTRUST

    1      0.20000000  1.00000000      0.263858214040      0.700000000000
    2      0.20000000  1.00000000      0.019932874426      0.700000000000
    3      0.20000000  1.00000000      0.000125994341      0.700000000000
    4      0.00000000  0.00000000      0.000000000000      0.700000000000


 Reduced L root no.  1
 ITER         EVAL              EVEC(1)           EVEC(2)           EVEC(3)
 ----------------------------------------------------------------------------
    1   -0.018380471665    0.998610478388   -0.038741082130   -0.033238383466
    2   -0.000101819759    0.999992053705   -0.003807480005   -0.001172624110
    3   -0.000000003693    0.999999999683   -0.000024566721   -0.000005535720
    4    0.000000000000    0.000000000000    0.000000000000    0.000000000000


                       .-----------------------------------.
                       | >>> Final results from SIRIUS <<< |
                       `-----------------------------------'


@    Spin multiplicity:           1
@    Spatial symmetry:            1
@    Total charge of molecule:    0
@    State number:                1

@    Final MCSCF energy:         -149.555463035716                 
@    Nuclear repulsion:            28.057869355546
@    Electronic energy:          -177.613332391262

@    Final gradient norm:           0.000006915489

 
     Date and time (Linux)  : Sun Sep  8 20:39:11 2013
     Host name              : lpqlx131.ups-tlse.fr                    

 Occupancies of natural orbitals
 -------------------------------

 Symmetry  1 -- Total occupation in this symmetry is   6.000000000

   2.000000000   2.000000000   2.000000000

 Symmetry  2 -- Total occupation in this symmetry is   2.000000000

   2.000000000

 Symmetry  3 -- Total occupation in this symmetry is   2.000000000

   2.000000000

 Symmetry  4 -- No occupied orbitals

 Symmetry  5 -- Total occupation in this symmetry is   4.000000000

   2.000000000   2.000000000

 Symmetry  6 -- Total occupation in this symmetry is   1.000000000

   1.000000000

 Symmetry  7 -- Total occupation in this symmetry is   1.000000000

   1.000000000

 Symmetry  8 -- No occupied orbitals

 (Only coefficients >0.0100 are printed.)

 Molecular orbitals for symmetry species  1
 ------------------------------------------

    Orbital         1        2        3        4        5
   1 O   :1s     0.7071  -0.0230   0.0228  -0.0199   0.0600
   2 O   :1s     0.0004   0.5535   0.3414  -0.1186   0.2823
   3 O   :1s    -0.0000  -0.0278   0.0576   0.5914   0.0799
   4 O   :2pz   -0.0006  -0.1759   0.6155  -0.0906   0.2885
   5 O   :2pz    0.0008   0.0445  -0.0538   0.0950   0.8938
   6 O   :3d0   -0.0001   0.0319  -0.0412  -0.0613   0.1202

 Molecular orbitals for symmetry species  2
 ------------------------------------------

    Orbital         1        2        3
   1 O   :2px    0.6304   0.0841   0.2015
   2 O   :2px   -0.0317  -0.5830  -0.0502
   3 O   :3d1+  -0.0399  -0.0624   0.6383

 Molecular orbitals for symmetry species  3
 ------------------------------------------

    Orbital         1        2        3
   1 O   :2py    0.6304   0.0841   0.2015
   2 O   :2py   -0.0317  -0.5830  -0.0502
   3 O   :3d1-  -0.0399  -0.0624   0.6383

 Molecular orbitals for symmetry species  4
 ------------------------------------------

    Orbital         1
   1 O   :3d2-   0.6484

 Molecular orbitals for symmetry species  5
 ------------------------------------------

    Orbital         1        2        3        4
   1 O   :1s     0.7073   0.0130  -0.1631  -0.0335
   2 O   :1s     0.0013   0.7582  -1.2519  -0.0487
   3 O   :1s     0.0007   0.0316  -0.4708  -0.1654
   4 O   :2pz   -0.0013   0.1775   0.9183  -0.4748
   5 O   :2pz    0.0000  -0.0298   0.7294   0.5301
   6 O   :3d0    0.0004  -0.0112  -0.0193  -0.1398

 Molecular orbitals for symmetry species  6
 ------------------------------------------

    Orbital         1        2        3
   1 O   :2px    0.8344  -0.4006  -0.6235
   2 O   :2px    0.0705  -1.1732  -0.5655
   3 O   :3d1+   0.0070   0.0059   1.0168

 Molecular orbitals for symmetry species  7
 ------------------------------------------

    Orbital         1        2        3
   1 O   :2py    0.8344  -0.4006  -0.6235
   2 O   :2py    0.0705  -1.1732  -0.5655
   3 O   :3d1-   0.0070   0.0059   1.0168

 Molecular orbitals for symmetry species  8
 ------------------------------------------

    Orbital         1
   1 O   :3d2-   0.7853

 Printout of CI-coefficients abs greater than 0.05000 for root  1
 *** NOTE: this root is the reference state ***


  Printout of coefficients in interval  0.3162E+00 to 0.1000E+01
  ==============================================================

 Coefficient of determinant         1 is      0.70710678  7.07106781E-01
 alpha-string:  1
  beta-string:  1

 Coefficient of determinant         2 is      0.70710678  7.07106781E-01
 alpha-string:     2
  beta-string:     2


  Printout of coefficients in interval  0.1000E+00 to 0.3162E+00
  ==============================================================
   ( no coefficients )


  Printout of coefficients in interval  0.5000E-01 to 0.1000E+00
  ==============================================================
   ( no coefficients )

 Norm of printed part of CI vector ..      1.00000000

  Magnitude of CI coefficients
  ============================

  ( Ranges are relative to norm of vector :  1.00E+00 )

  10- 1 to 10- 0         2    0.10000000E+01    0.10000000E+01
  Number of coefficients less than 10^-11 times norm is             0



 >>>> Total CPU  time used in SIRIUS :      0.02 seconds
 >>>> Total wall time used in SIRIUS :      0.02 seconds

 
     Date and time (Linux)  : Sun Sep  8 20:39:11 2013
     Host name              : lpqlx131.ups-tlse.fr                    


                     .---------------------------------------.
                     | End of Wave Function Section (SIRIUS) |
                     `---------------------------------------'



                 .------------------------------------------------.
                 | Starting in Dynamic Property Section (RESPONS) |
                 `------------------------------------------------'


 ------------------------------------------------------------------------------
  RESPONSE  -  an MCSCF, MC-srDFT, DFT, and SOPPA response property program
 ------------------------------------------------------------------------------


 <<<<<<<<<< OUTPUT FROM RESPONSE INPUT PROCESSING >>>>>>>>>>




 CHANGES OF DEFAULTS FOR RSPINP:
 -------------------------------


 ** CALCULATION OF TRIPLET RESPONSE PROPERTIES  **  TRPFLG = T  TRPLET = T

 Default : Using Fock type decoupling of the two-electron density matrix :
    Add DV*(FC+FV) instead of DV*FC to E[2] approximate orbital diagonal



  Linear Response single residue calculation
 -------------------------------------------

 Print level                                    : IPRPP  =   2
 Maximum number of iterations for eigenval.eqs. : MAXITP =  60
 Threshold for convergence of eigenvalue eqs.   : THCPP  = 1.000D-03
 Maximum iterations in optimal orbital algorithm: MAXITO =   5

      1 Excitation energies are calculated for symmetry no.    4

      1 property residues are calculated with labels:

               Z1MNF-SO

 Old direct access AO file found, SORTA skipped.

 Integral transformation: Total CPU and WALL times (sec)       0.003       0.003


 MCSCF energy         :     -149.555463035716343
 -- inactive part     :     -176.092343592189081
 --   active part     :       -1.520988799073091
 -- nuclear repulsion :       28.057869355545812


                        **********************************
                        *** MCSCF response calculation ***
                        **********************************



 >>>>>>>>>> Linear response calculation
 >>>>>>>>>> Symmetry of excitation/property operator(s)    4

 Number of excitations of this symmetry            1
 Number of response properties of this symmetry    0
 Number of C6/C8 properties of this symmetry       0


 Perturbation symmetry.     KSYMOP:       4
 Perturbation spin symmetry.TRPLET:       T
 Orbital variables.         KZWOPT:      13
 Configuration variables.   KZCONF:       2
 Total number of variables. KZVAR :      15



 <<< EXCITATION ENERGIES AND TRANSITION MOMENT CALCULATION (MCTDHF) >>>

 Operator symmetry =  4; triplet =   T


 *** THE REQUESTED    1 SOLUTION VECTORS CONVERGED

 Convergence of RSP solution vectors, threshold = 1.00D-03
 ---------------------------------------------------------------
 (dimension of paired reduced space:    8)
 RSP solution vector no.    1; norm of residual   2.01D-05

 *** RSPCTL MICROITERATIONS CONVERGED

@ Transition operator type:    Z1MNF-SO
@ STATE NO:    1 *TRANSITION MOMENT: -8.70408109E-04 *ENERGY(eV):  -2.9125419    


  ******************************************************************************
  *** @ Excit. operator sym 4 & ref. state sym 1 => excited state symmetry 4 ***
  ******************************************************************************



 @ Excited state no:    1 in symmetry  4
 ---------------------------------------

@ Excitation energy : -0.10703395    au
@                     -2.9125419     eV
@                     -23491.236     cm-1
                      -281.01759     kJ / mol

@ Total energy :      -149.66250     au

@ Operator type:    Z1MNF-SO
@ Spin-orbit coupling constant (Z1MNF-SO) :  -191.03250     cm-1
                                           -8.70408109E-04 au


 Time used in polarization propagator calculation is      0.00 CPU seconds for symmetry 4

 >>>> Total CPU  time used in RESPONSE:   0.01 seconds
 >>>> Total wall time used in RESPONSE:   0.01 seconds


                   .-------------------------------------------.
                   | End of Dynamic Property Section (RESPONS) |
                   `-------------------------------------------'

 >>>> Total CPU  time used in DALTON:   0.35 seconds
 >>>> Total wall time used in DALTON:   0.35 seconds

 
     Date and time (Linux)  : Sun Sep  8 20:39:11 2013
     Host name              : lpqlx131.ups-tlse.fr                    
