

     ************************************************************************
     *************** Dalton - An Electronic Structure Program ***************
     ************************************************************************

    This is output from DALTON release Dalton2017.alpha (2016)
         ( Web site: http://daltonprogram.org )

   ----------------------------------------------------------------------------

    NOTE:
     
    Dalton is an experimental code for the evaluation of molecular
    properties using (MC)SCF, DFT, CI, and CC wave functions.
    The authors accept no responsibility for the performance of
    the code or for the correctness of the results.
     
    The code (in whole or part) is provided under a licence and
    is not to be reproduced for further distribution without
    the written permission of the authors or their representatives.
     
    See the home page "http://daltonprogram.org" for further information.
     
    If results obtained with this code are published,
    the appropriate citations would be both of:
     
       K. Aidas, C. Angeli, K. L. Bak, V. Bakken, R. Bast,
       L. Boman, O. Christiansen, R. Cimiraglia, S. Coriani,
       P. Dahle, E. K. Dalskov, U. Ekstroem,
       T. Enevoldsen, J. J. Eriksen, P. Ettenhuber, B. Fernandez,
       L. Ferrighi, H. Fliegl, L. Frediani, K. Hald, A. Halkier,
       C. Haettig, H. Heiberg, T. Helgaker, A. C. Hennum,
       H. Hettema, E. Hjertenaes, S. Hoest, I.-M. Hoeyvik,
       M. F. Iozzi, B. Jansik, H. J. Aa. Jensen, D. Jonsson,
       P. Joergensen, J. Kauczor, S. Kirpekar,
       T. Kjaergaard, W. Klopper, S. Knecht, R. Kobayashi, H. Koch,
       J. Kongsted, A. Krapp, K. Kristensen, A. Ligabue,
       O. B. Lutnaes, J. I. Melo, K. V. Mikkelsen, R. H. Myhre,
       C. Neiss, C. B. Nielsen, P. Norman, J. Olsen,
       J. M. H. Olsen, A. Osted, M. J. Packer, F. Pawlowski,
       T. B. Pedersen, P. F. Provasi, S. Reine, Z. Rinkevicius,
       T. A. Ruden, K. Ruud, V. Rybkin, P. Salek, C. C. M. Samson,
       A. Sanchez de Meras, T. Saue, S. P. A. Sauer,
       B. Schimmelpfennig, K. Sneskov, A. H. Steindal,
       K. O. Sylvester-Hvid, P. R. Taylor, A. M. Teale,
       E. I. Tellgren, D. P. Tew, A. J. Thorvaldsen, L. Thoegersen,
       O. Vahtras, M. A. Watson, D. J. D. Wilson, M. Ziolkowski
       and H. Agren,
       "The Dalton quantum chemistry program system",
       WIREs Comput. Mol. Sci. 2014, 4:269–284 (doi: 10.1002/wcms.1172)
     
    and
     
       Dalton, a Molecular Electronic Structure Program,
       Release Dalton2017.alpha (2016), see http://daltonprogram.org
   ----------------------------------------------------------------------------

    Authors in alphabetical order (major contribution(s) in parenthesis):

  Kestutis Aidas,           Vilnius University,           Lithuania   (QM/MM)
  Celestino Angeli,         University of Ferrara,        Italy       (NEVPT2)
  Keld L. Bak,              UNI-C,                        Denmark     (AOSOPPA, non-adiabatic coupling, magnetic properties)
  Vebjoern Bakken,          University of Oslo,           Norway      (DALTON; geometry optimizer, symmetry detection)
  Radovan Bast,             UiT The Arctic U. of Norway,  Norway      (DALTON installation and execution frameworks)
  Pablo Baudin,             University of Valencia,       Spain       (Cholesky excitation energies)
  Linus Boman,              NTNU,                         Norway      (Cholesky decomposition and subsystems)
  Ove Christiansen,         Aarhus University,            Denmark     (CC module)
  Renzo Cimiraglia,         University of Ferrara,        Italy       (NEVPT2)
  Sonia Coriani,            University of Trieste,        Italy       (CC module, MCD in RESPONS)
  Janusz Cukras,            University of Trieste,        Italy       (MChD in RESPONS)
  Paal Dahle,               University of Oslo,           Norway      (Parallelization)
  Erik K. Dalskov,          UNI-C,                        Denmark     (SOPPA)
  Thomas Enevoldsen,        Univ. of Southern Denmark,    Denmark     (SOPPA)
  Janus J. Eriksen,         Aarhus University,            Denmark     (Polarizable embedding model, TDA)
  Rasmus Faber,             University of Copenhagen,     Denmark     (Vib.avg. NMR with SOPPA, parallel AO-SOPPA)
  Berta Fernandez,          U. of Santiago de Compostela, Spain       (doublet spin, ESR in RESPONS)
  Lara Ferrighi,            Aarhus University,            Denmark     (PCM Cubic response)
  Heike Fliegl,             University of Oslo,           Norway      (CCSD(R12))
  Luca Frediani,            UiT The Arctic U. of Norway,  Norway      (PCM)
  Bin Gao,                  UiT The Arctic U. of Norway,  Norway      (Gen1Int library)
  Christof Haettig,         Ruhr-University Bochum,       Germany     (CC module)
  Kasper Hald,              Aarhus University,            Denmark     (CC module)
  Asger Halkier,            Aarhus University,            Denmark     (CC module)
  Frederik Beyer Hansen,    University of Copenhagen,     Denmark     (Parallel AO-SOPPA)
  Erik D. Hedegaard,        Univ. of Southern Denmark,    Denmark     (Polarizable embedding model, QM/MM)
  Hanne Heiberg,            University of Oslo,           Norway      (geometry analysis, selected one-electron integrals)
  Trygve Helgaker,          University of Oslo,           Norway      (DALTON; ABACUS, ERI, DFT modules, London, and much more)
  Alf Christian Hennum,     University of Oslo,           Norway      (Parity violation)
  Hinne Hettema,            University of Auckland,       New Zealand (quadratic response in RESPONS; SIRIUS supersymmetry)
  Eirik Hjertenaes,         NTNU,                         Norway      (Cholesky decomposition)
  Pi A. B. Haase,           University of Copenhagen,     Denmark     (Triplet AO-SOPPA)
  Maria Francesca Iozzi,    University of Oslo,           Norway      (RPA)
  Brano Jansik              Technical Univ. of Ostrava    Czech Rep.  (DFT cubic response)
  Hans Joergen Aa. Jensen,  Univ. of Southern Denmark,    Denmark     (DALTON; SIRIUS, RESPONS, ABACUS modules, London, and much more)
  Dan Jonsson,              UiT The Arctic U. of Norway,  Norway      (cubic response in RESPONS module)
  Poul Joergensen,          Aarhus University,            Denmark     (RESPONS, ABACUS, and CC modules)
  Maciej Kaminski,          University of Warsaw,         Poland      (CPPh in RESPONS)
  Joanna Kauczor,           Linkoeping University,        Sweden      (Complex polarization propagator (CPP) module)
  Sheela Kirpekar,          Univ. of Southern Denmark,    Denmark     (Mass-velocity & Darwin integrals)
  Wim Klopper,              KIT Karlsruhe,                Germany     (R12 code in CC, SIRIUS, and ABACUS modules)
  Stefan Knecht,            ETH Zurich,                   Switzerland (Parallel CI and MCSCF)
  Rika Kobayashi,           Australian National Univ.,    Australia   (DIIS in CC, London in MCSCF)
  Henrik Koch,              NTNU,                         Norway      (CC module, Cholesky decomposition)
  Jacob Kongsted,           Univ. of Southern Denmark,    Denmark     (Polarizable embedding model, QM/MM)
  Andrea Ligabue,           University of Modena,         Italy       (CTOCD, AOSOPPA)
  Nanna H. List             Univ. of Southern Denmark,    Denmark     (Polarizable embedding model)
  Ola B. Lutnaes,           University of Oslo,           Norway      (DFT Hessian)
  Juan I. Melo,             University of Buenos Aires,   Argentina   (LRESC, Relativistic Effects on NMR Shieldings)
  Kurt V. Mikkelsen,        University of Copenhagen,     Denmark     (MC-SCRF and QM/MM)
  Rolf H. Myhre,            NTNU,                         Norway      (Cholesky, subsystems and ECC2)
  Christian Neiss,          Univ. Erlangen-Nuernberg,     Germany     (CCSD(R12))
  Christian B. Nielsen,     University of Copenhagen,     Denmark     (QM/MM)
  Patrick Norman,           Linkoeping University,        Sweden      (Cubic response and complex frequency response in RESPONS)
  Jeppe Olsen,              Aarhus University,            Denmark     (SIRIUS CI/density modules)
  Jogvan Magnus H. Olsen,   Univ. of Southern Denmark,    Denmark     (Polarizable embedding model, QM/MM)
  Anders Osted,             Copenhagen University,        Denmark     (QM/MM)
  Martin J. Packer,         University of Sheffield,      UK          (SOPPA)
  Filip Pawlowski,          Kazimierz Wielki University,  Poland      (CC3)
  Morten N. Pedersen,       Univ. of Southern Denmark,    Denmark     (Polarizable embedding model)
  Thomas B. Pedersen,       University of Oslo,           Norway      (Cholesky decomposition)
  Patricio F. Provasi,      University of Northeastern,   Argentina   (Analysis of coupling constants in localized orbitals)
  Zilvinas Rinkevicius,     KTH Stockholm,                Sweden      (open-shell DFT, ESR)
  Elias Rudberg,            KTH Stockholm,                Sweden      (DFT grid and basis info)
  Torgeir A. Ruden,         University of Oslo,           Norway      (Numerical derivatives in ABACUS)
  Kenneth Ruud,             UiT The Arctic U. of Norway,  Norway      (DALTON; ABACUS magnetic properties and much more)
  Pawel Salek,              KTH Stockholm,                Sweden      (DALTON; DFT code)
  Claire C. M. Samson       University of Karlsruhe       Germany     (Boys localization, r12 integrals in ERI)
  Alfredo Sanchez de Meras, University of Valencia,       Spain       (CC module, Cholesky decomposition)
  Trond Saue,               Paul Sabatier University,     France      (direct Fock matrix construction)
  Stephan P. A. Sauer,      University of Copenhagen,     Denmark     (SOPPA(CCSD), SOPPA prop., AOSOPPA, vibrational g-factors)
  Bernd Schimmelpfennig,    Forschungszentrum Karlsruhe,  Germany     (AMFI module)
  Kristian Sneskov,         Aarhus University,            Denmark     (Polarizable embedding model, QM/MM)
  Arnfinn H. Steindal,      UiT The Arctic U. of Norway,  Norway      (parallel QM/MM, Polarizable embedding model)
  Casper Steinmann,         Univ. of Southern Denmark,    Denmark     (QFIT, Polarizable embedding model)
  K. O. Sylvester-Hvid,     University of Copenhagen,     Denmark     (MC-SCRF)
  Peter R. Taylor,          VLSCI/Univ. of Melbourne,     Australia   (Symmetry handling ABACUS, integral transformation)
  Andrew M. Teale,          University of Nottingham,     England     (DFT-AC, DFT-D)
  David P. Tew,             University of Bristol,        England     (CCSD(R12))
  Olav Vahtras,             KTH Stockholm,                Sweden      (triplet response, spin-orbit, ESR, TDDFT, open-shell DFT)
  David J. Wilson,          La Trobe University,          Australia   (DFT Hessian and DFT magnetizabilities)
  Hans Agren,               KTH Stockholm,                Sweden      (SIRIUS module, RESPONS, MC-SCRF solvation model)
 --------------------------------------------------------------------------------

     Date and time (Linux)  : Tue Jan 10 11:43:12 2017
     Host name              : TESD11                                  

 * Work memory size             :    64000000 =  488.28 megabytes.

 * Directories for basis set searches:
   1) /home/rasmus/source/dalton/build/test/prop_exci_aosoppa
   2) /home/rasmus/source/dalton/build/basis


Compilation information
-----------------------

 Who compiled             | rasmus
 Host                     | TESD11
 System                   | Linux-3.13.0-85-generic
 CMake generator          | Unix Makefiles
 Processor                | x86_64
 64-bit integers          | OFF
 MPI                      | OFF
 Fortran compiler         | /usr/bin/gfortran
 Fortran compiler version | GNU Fortran (Ubuntu 4.8.4-2ubuntu1~14.04.3) 4.8.4
 C compiler               | /usr/bin/gcc
 C compiler version       | gcc (Ubuntu 4.8.4-2ubuntu1~14.04.3) 4.8.4
 C++ compiler             | /usr/bin/g++
 C++ compiler version     | g++ (Ubuntu 4.8.4-2ubuntu1~14.04.3) 4.8.4
 Static linking           | OFF
 Last Git revision        | b07b47d5541a0e9d0fb4dd51cfade11c951986fc
 Git branch               | aosoppa_devel
 Configuration time       | 2017-01-10 11:42:48.404216


   Content of the .dal input file
 ----------------------------------

**DALTON INPUT
.RUN PROPERTIES
**WAVE FUNCTIONS
.HF
.CC
*CC INPUT
.MP2
.AO-SOPPA
**PROPERTIES
.SOPPA
.EXCITA
.PRINT
 2
*SOPPA
.AOSOP
.NEXCI2
    0    2    1   1    0     0    0    0
*EXCITA
.DIPSTR
.ROTVEL
.NEXCITA
    5    7    6    6    0    0    0    0
**END OF DALTON INPUT


   Content of the .mol file
 ----------------------------

INTGRL
Calculation of excitation energies through ABACUS

c   2    2  X  Y      0.10D-14
      8.00    1    3    6    5    1
O   0.00000             0.00000              0.1241444240
F  6    1
31195.6 0.00021
4669.38 0.001628
1062.62 0.00845
301.426 0.034191
98.5153 0.110311
35.4609 .269493
F  1    1
13.6179 .423545
F  1    1
5.38618 .283038
F  1    1
1.53873 .027484
F  1    1
.6055 -.005144
F  1    1
.22054 .00164
F  3    1
114.863 .002266
26.8767 0.017192
8.32077 0.075341
F  1    1
2.97237 .212775
F  1    1
1.12848 .370478
F  1    1
.4236 .398523
F  1    1
.15074 .184703
F  2    1
1.21879 .357851
.36102 .759561
      1.00    1    2    3    1
H   0.00000             1.43153              -0.985265576
F  3    1
33.865014 .006068
5.094788 0.045316
1.158786 0.202846
F  1    1
0.32584 0.503709
F  1    1
.102741 .383568
F  1    1
1.16 1.0


       *******************************************************************
       *********** Output from DALTON general input processing ***********
       *******************************************************************

 --------------------------------------------------------------------------------
   Overall default print level:    0
   Print level for DALTON.STAT:    1

    HERMIT 1- and 2-electron integral sections will be executed
    "Old" integral transformation used (limited to max 255 basis functions)
    Wave function sections will be executed (SIRIUS module)
    Static molecular property section will be executed (ABACUS module)
 --------------------------------------------------------------------------------


   ****************************************************************************
   *************** Output of molecule and basis set information ***************
   ****************************************************************************


    The two title cards from your ".mol" input:
    ------------------------------------------------------------------------
 1: Calculation of excitation energies through ABACUS                       
 2:                                                                         
    ------------------------------------------------------------------------



@ WARNING - deprecated old .mol fixed format input has been detected:
C   2    2  X  Y      0.10D-14                                                  
@ WARNING - this input format may not be supported in future releases.




  Atomic type no.    1
  --------------------
  Nuclear charge:   8.00000
  Number of symmetry independent centers:    1
  Number of basis sets to read;    2

  Atomic type no.    2
  --------------------
  Nuclear charge:   1.00000
  Number of symmetry independent centers:    1
  Number of basis sets to read;    2


                         SYMGRP: Point group information
                         -------------------------------

@    Point group: C2v

@  * The irrep name for each symmetry:    1: A1     2: B1     3: B2     4: A2 

   * The point group was generated by:

      Reflection in the yz-plane
      Reflection in the xz-plane

   * Group multiplication table

        |  E   C2z  Oxz  Oyz
   -----+--------------------
     E  |  E   C2z  Oxz  Oyz
    C2z | C2z   E   Oyz  Oxz
    Oxz | Oxz  Oyz   E   C2z
    Oyz | Oyz  Oxz  C2z   E 

   * Character table

        |  E   C2z  Oxz  Oyz
   -----+--------------------
    A1  |   1    1    1    1
    B1  |   1   -1    1   -1
    B2  |   1   -1   -1    1
    A2  |   1    1   -1   -1

   * Direct product table

        | A1   B1   B2   A2 
   -----+--------------------
    A1  | A1   B1   B2   A2 
    B1  | B1   A1   A2   B2 
    B2  | B2   A2   A1   B1 
    A2  | A2   B2   B1   A1 


                                 Isotopic Masses
                                 ---------------

                           O          15.994915
                           H   _1      1.007825
                           H   _2      1.007825

                       Total mass:    18.010565 amu
                       Natural abundance:  99.730 %

 Center-of-mass coordinates (a.u.):    0.000000    0.000000   -0.000015


  Atoms and basis sets
  --------------------

  Number of atom types :    2
  Total number of atoms:    3

  label    atoms   charge   prim   cont     basis
  ----------------------------------------------------------------------
  O           1    8.0000    44    27      [11s7p2d|6s5p1d]                                   
  H           2    1.0000     8     6      [5s1p|3s1p]                                        
  ----------------------------------------------------------------------
  total:      3   10.0000    60    39
  ----------------------------------------------------------------------
  Cartesian basis used.
  (Note that d, f, ... atomic GTOs are not all normalized.)

  Threshold for neglecting AO integrals:  1.00D-15


  Cartesian Coordinates (a.u.)
  ----------------------------

  Total number of coordinates:    9
  O       :     1  x   0.0000000000    2  y   0.0000000000    3  z   0.1241444240
  H   / 1 :     4  x   0.0000000000    5  y   1.4315300000    6  z  -0.9852655760
  H   / 2 :     7  x   0.0000000000    8  y  -1.4315300000    9  z  -0.9852655760


  Symmetry Coordinates
  --------------------

  Number of coordinates in each symmetry:     3    2    3    1

  Symmetry  A1  ( 1)

    1   O     z    3
    2   H     y    [  5  -    8 ]/2
    3   H     z    [  6  +    9 ]/2

  Symmetry  B1  ( 2)

    4   O     x    1
    5   H     x    [  4  +    7 ]/2

  Symmetry  B2  ( 3)

    6   O     y    2
    7   H     y    [  5  +    8 ]/2
    8   H     z    [  6  -    9 ]/2

  Symmetry  A2  ( 4)

    9   H     x    [  4  -    7 ]/2


   Interatomic separations (in Angstrom):
   --------------------------------------

            O           H   _1      H   _2
            ------      ------      ------
 O     :    0.000000
 H   _1:    0.958391    0.000000
 H   _2:    0.958391    1.515066    0.000000


  Max    interatomic separation is    1.5151 Angstrom (    2.8631 Bohr)
  between atoms    3 and    2, "H   _2" and "H   _1".

  Min HX interatomic separation is    0.9584 Angstrom (    1.8111 Bohr)


  Bond distances (Angstrom):
  --------------------------

                  atom 1     atom 2       distance
                  ------     ------       --------
  bond distance:  H   _1     O            0.958391
  bond distance:  H   _2     O            0.958391


  Bond angles (degrees):
  ----------------------

                  atom 1     atom 2     atom 3         angle
                  ------     ------     ------         -----
  bond angle:     H   _1     O          H   _2       104.450




 Principal moments of inertia (u*A**2) and principal axes
 --------------------------------------------------------

   IA       0.616959          0.000000    1.000000    0.000000
   IB       1.156694          0.000000    0.000000    1.000000
   IC       1.773652          1.000000    0.000000    0.000000


 Rotational constants
 --------------------

@    The molecule is planar.

               A                   B                   C

         819145.5126         436916.9575         284936.9149 MHz
           27.323753           14.573981            9.504472 cm-1


@  Nuclear repulsion energy :    9.183706230245 Hartree


  Symmetry Orbitals
  -----------------

  Number of orbitals in each symmetry:          19    7   11    2


  Symmetry  A1 ( 1)

    1     O        s          1
    2     O        s          2
    3     O        s          3
    4     O        s          4
    5     O        s          5
    6     O        s          6
    7     O        pz         9
    8     O        pz        12
    9     O        pz        15
   10     O        pz        18
   11     O        pz        21
   12     O        dxx       22
   13     O        dyy       25
   14     O        dzz       27
   15     H        s         28 +   29
   16     H        s         30 +   31
   17     H        s         32 +   33
   18     H        py        36 -   37
   19     H        pz        38 +   39


  Symmetry  B1 ( 2)

   20     O        px         7
   21     O        px        10
   22     O        px        13
   23     O        px        16
   24     O        px        19
   25     O        dxz       24
   26     H        px        34 +   35


  Symmetry  B2 ( 3)

   27     O        py         8
   28     O        py        11
   29     O        py        14
   30     O        py        17
   31     O        py        20
   32     O        dyz       26
   33     H        s         28 -   29
   34     H        s         30 -   31
   35     H        s         32 -   33
   36     H        py        36 +   37
   37     H        pz        38 -   39


  Symmetry  A2 ( 4)

   38     O        dxy       23
   39     H        px        34 -   35

  Symmetries of electric field:  B1 (2)  B2 (3)  A1 (1)

  Symmetries of magnetic field:  B2 (3)  B1 (2)  A2 (4)


                     .---------------------------------------.
                     | Starting in Integral Section (HERMIT) |
                     `---------------------------------------'



 ***************************************************************************************
 ****************** Output from **INTEGRALS input processing (HERMIT) ******************
 ***************************************************************************************


 - Using defaults, no **INTEGRALS input found

 Default print level:        1

 * Nuclear model: Point charge

 Calculation of one- and two-electron Hamiltonian integrals.

 Center of mass  (bohr):      0.000000000000      0.000000000000     -0.000015049426
 Operator center (bohr):      0.000000000000      0.000000000000      0.000000000000
 Gauge origin    (bohr):      0.000000000000      0.000000000000      0.000000000000
 Dipole origin   (bohr):      0.000000000000      0.000000000000      0.000000000000


     ************************************************************************
     ************************** Output from HERINT **************************
     ************************************************************************


 Threshold for neglecting two-electron integrals:  1.00D-15
 HERMIT - Number of two-electron integrals written:       75206 ( 24.7% )
 HERMIT - Megabytes written:                              0.866

  Time used in TWOINT     is       0.13 seconds
  Total CPU  time used in HERMIT:   0.14 seconds
  Total wall time used in HERMIT:   0.13 seconds


                        .----------------------------------.
                        | End of Integral Section (HERMIT) |
                        `----------------------------------'



                   .--------------------------------------------.
                   | Starting in Wave Function Section (SIRIUS) |
                   `--------------------------------------------'


 *** Output from Huckel module :

     Using EWMO model:          F
     Using EHT  model:          T
     Number of Huckel orbitals each symmetry:    4    1    2    0

 Huckel EHT eigenvalues for symmetry :  1
          -20.705520      -1.505990      -0.670643      -0.292535

 Huckel EHT eigenvalues for symmetry :  2
           -0.616200

 Huckel EHT eigenvalues for symmetry :  3
           -0.731199      -0.257813

 **********************************************************************
 *SIRIUS* a direct, restricted step, second order MCSCF program       *
 **********************************************************************

 
     Date and time (Linux)  : Tue Jan 10 11:43:12 2017
     Host name              : TESD11                                  

 Title lines from ".mol" input file:
     Calculation of excitation energies through ABACUS                       
                                                                             

 Print level on unit LUPRI =   2 is   0
 Print level on unit LUW4  =   2 is   5

@    (Integral direct) CC calculation.

@    This is a combination run starting with
@              a restricted, closed shell Hartree-Fock calculation


 Initial molecular orbitals are obtained according to
 ".MOSTART EHT   " input option

     Wave function specification
     ============================

     For the specification of the Coupled Cluster: see later.

@    Wave function type        --- CC ---
@    Number of closed shell electrons          10
@    Number of electrons in active shells       0
@    Total charge of the molecule               0

@    Spin multiplicity and 2 M_S                1         0
@    Total number of symmetries                 4 (point group: C2v)
@    Reference state symmetry                   1 (irrep name : A1 )

     Orbital specifications
     ======================
@    Abelian symmetry species          All |    1    2    3    4
@                                          |  A1   B1   B2   A2 
                                       --- |  ---  ---  ---  ---
@    Total number of orbitals           39 |   19    7   11    2
@    Number of basis functions          39 |   19    7   11    2

      ** Automatic occupation of RHF orbitals **

      -- Initial occupation of symmetries is determined from extended Huckel guess.           
      -- Initial occupation of symmetries is :
@    Occupied SCF orbitals               5 |    3    1    1    0

     Maximum number of Fock   iterations      0
     Maximum number of DIIS   iterations     60
     Maximum number of QC-SCF iterations     60
     Threshold for SCF convergence     1.00D-06


 Changes of defaults for CC:
 ---------------------------


 MP2 Amplitudes written for atom integral direct SOPPA calculations
  


 ***********************************************
 ***** DIIS acceleration of SCF iterations *****
 ***********************************************

 C1-DIIS algorithm; max error vectors =    8

 Automatic occupation of symmetries with  10 electrons.

 Iter     Total energy    Error norm  Delta(E)    SCF occupation
 -----------------------------------------------------------------------------
 Calculating AOSUPINT
     (Precalculated two-electron integrals are transformed to P-supermatrix elements.
      Threshold for discarding integrals :  1.00D-15 )
@  1  -75.8289971698       2.45D+00  -7.58D+01     3   1   1   0
      Virial theorem: -V/T =      1.995901
@      MULPOP O      -0.57; H   _1  0.28; H   _2  0.28; 
   1  Level shift: doubly occupied orbital energies shifted by -2.00D-01
 -----------------------------------------------------------------------------
@  2  -76.0477191037       4.04D-01  -2.19D-01     3   1   1   0
      Virial theorem: -V/T =      2.001925
@      MULPOP O      -0.76; H   _1  0.38; H   _2  0.38; 
   2  Level shift: doubly occupied orbital energies shifted by -5.00D-02
 -----------------------------------------------------------------------------
@  3  -76.0596167013       1.04D-01  -1.19D-02     3   1   1   0
      Virial theorem: -V/T =      2.001234
@      MULPOP O      -0.81; H   _1  0.40; H   _2  0.40; 
   3  Level shift: doubly occupied orbital energies shifted by -2.50D-02
 -----------------------------------------------------------------------------
@  4  -76.0607459910       1.62D-02  -1.13D-03     3   1   1   0
      Virial theorem: -V/T =      2.000745
@      MULPOP O      -0.83; H   _1  0.41; H   _2  0.41; 
 -----------------------------------------------------------------------------
@  5  -76.0607821294       4.23D-03  -3.61D-05     3   1   1   0
      Virial theorem: -V/T =      2.000842
@      MULPOP O      -0.83; H   _1  0.41; H   _2  0.41; 
 -----------------------------------------------------------------------------
@  6  -76.0607839031       1.99D-03  -1.77D-06     3   1   1   0
      Virial theorem: -V/T =      2.000771
@      MULPOP O      -0.83; H   _1  0.42; H   _2  0.42; 
 -----------------------------------------------------------------------------
@  7  -76.0607842040       3.09D-04  -3.01D-07     3   1   1   0
      Virial theorem: -V/T =      2.000810
@      MULPOP O      -0.83; H   _1  0.42; H   _2  0.42; 
 -----------------------------------------------------------------------------
@  8  -76.0607842184       4.49D-05  -1.44D-08     3   1   1   0
      Virial theorem: -V/T =      2.000809
@      MULPOP O      -0.83; H   _1  0.42; H   _2  0.42; 
 -----------------------------------------------------------------------------
@  9  -76.0607842187       9.49D-06  -2.34D-10     3   1   1   0
      Virial theorem: -V/T =      2.000810
@      MULPOP O      -0.83; H   _1  0.42; H   _2  0.42; 
 -----------------------------------------------------------------------------
@ 10  -76.0607842187       1.81D-06  -1.22D-11     3   1   1   0
      Virial theorem: -V/T =      2.000810
@      MULPOP O      -0.83; H   _1  0.42; H   _2  0.42; 
 -----------------------------------------------------------------------------
@ 11  -76.0607842187       4.60D-07  -5.97D-13     3   1   1   0

@ *** DIIS converged in  11 iterations !
@     Converged SCF energy, gradient:    -76.060784218682    4.60D-07
    - total time used in SIRFCK :              0.00 seconds


 *** SCF orbital energy analysis ***

 Only the 20 lowest virtual orbital energies printed in each symmetry.

 Number of electrons :   10
 Orbital occupations :    3    1    1    0

 Sym       Hartree-Fock orbital energies

1 A1    -20.56238099    -1.35070292    -0.58322552     0.13488236     0.46314710
          0.61795220     0.96390625     1.24752064     1.69113077     2.01359248
          2.63200618     3.49717243     3.65989625     4.20360190     6.56227717
          7.19443823    20.57248744    23.27802619    94.32736808

2 B1     -0.50745990     0.47365390     1.30684668     2.03588081     3.06713277
          6.59507911    23.12059735

3 B2     -0.71596732     0.19111002     0.50061393     0.67340606     1.74928910
          2.12363466     2.66276194     3.17158895     4.26606044     6.89290269
         23.35853257

4 A2      1.26154317     2.98152149

    E(LUMO) :     0.13488236 au (symmetry 1)
  - E(HOMO) :    -0.50745990 au (symmetry 2)
  ------------------------------------------
    gap     :     0.64234226 au

 --- Writing SIRIFC interface file

 CPU and wall time for SCF :       0.013       0.013


                       .-----------------------------------.
                       | --- Final results from SIRIUS --- |
                       `-----------------------------------'


@    Spin multiplicity:           1
@    Spatial symmetry:            1 ( irrep  A1  in C2v )
@    Total charge of molecule:    0

@    Final HF energy:             -76.060784218682                 
@    Nuclear repulsion:             9.183706230245
@    Electronic energy:           -85.244490448927

@    Final gradient norm:           0.000000459675

 
     Date and time (Linux)  : Tue Jan 10 11:43:12 2017
     Host name              : TESD11                                  


 INFO: Sorry, plot of MOs with Molden is only implemented for spherical GTOs

File label for MO orbitals:  10Jan17   FOCKDIIS

 (Only coefficients > 0.0100 are printed.)

 Molecular orbitals for symmetry species 1  (A1 )
 ------------------------------------------------

    Orbital         1        2        3        4        5        6        7
   1 O   :s      0.3905  -0.0859  -0.0284   0.0258   0.0135  -0.0243  -0.0527
   2 O   :s      0.4237  -0.1378  -0.0459   0.0378   0.0306  -0.0418  -0.1024
   3 O   :s      0.2819  -0.1215  -0.0431   0.0497  -0.0041  -0.0322  -0.0455
   4 O   :s      0.0265   0.2173   0.0651  -0.2180  -0.2033  -0.0920  -0.7995
   5 O   :s      0.0055  -0.5023  -0.2007  -0.1581  -0.0657  -0.4170  -2.7662
   6 O   :s      0.0155   0.1756   0.2265  -0.9082  -0.1321   1.2037  -2.0988
   7 O   :pz    -0.0012  -0.0103   0.0721   0.0191  -0.0321  -0.0358  -0.0099
   8 O   :pz    -0.0004  -0.0234   0.1696   0.0449  -0.1369  -0.1136   0.0050
   9 O   :pz    -0.0002  -0.0499   0.2999   0.0858   0.0069  -0.0686  -0.1231
  10 O   :pz     0.0004  -0.0487   0.3172   0.0693  -0.7063  -0.7586   0.1956
  11 O   :pz    -0.0006  -0.0078   0.1975   0.2876   1.6736  -0.2159   0.6462
  12 O   :dxx   -0.0029   0.0146   0.0070  -0.0620  -0.1443  -0.0762  -0.4781
  13 O   :dyy   -0.0030   0.0263   0.0015  -0.0507  -0.1683  -0.0954  -0.3585
  14 O   :dzz   -0.0030   0.0251  -0.0304  -0.0614  -0.1732  -0.0406  -0.4599
  15 H   :s      0.0003   0.0918  -0.0879   0.0285  -0.0105  -0.0786  -0.0035
  16 H   :s      0.0001   0.0539  -0.1102  -0.0295   0.5540  -1.6009   0.5652
  17 H   :s     -0.0008   0.0066  -0.0189   0.9445   0.1271   0.5950   0.6123
  18 H   :py    -0.0001  -0.0144   0.0141   0.0199  -0.0037   0.0211  -0.0016
  19 H   :pz     0.0000   0.0099   0.0025  -0.0117   0.0068  -0.0216   0.0157

    Orbital         8        9       10       11       12       13
   1 O   :s      0.0047  -0.0171   0.0046  -0.0281  -0.0020   0.0912
   2 O   :s      0.0067  -0.0145   0.0222  -0.0270  -0.0115   0.2204
   3 O   :s      0.0113  -0.0713  -0.0376  -0.1082   0.0213  -0.0481
   4 O   :s      0.1225  -0.3010  -0.8015   0.6807  -0.1638  -5.6649
   5 O   :s      0.3122  -0.9036  -0.6756   0.9619  -0.3907  -4.1119
   6 O   :s      0.2539  -1.5286   3.2439  -0.2230   0.2048  13.1395
   7 O   :pz    -0.0126   0.0276   0.1202   0.0351  -0.0216  -0.0034
   8 O   :pz    -0.0246   0.0120   0.0773  -0.0702   0.0148  -0.0155
   9 O   :pz    -0.0712   0.2360   1.2486   0.5817  -0.3253  -0.0162
  10 O   :pz    -0.0172   0.0949  -2.3112  -0.8385   0.4675   0.3803
  11 O   :pz    -0.2407   1.0674   0.3849   0.4402  -0.1067   0.0290
  12 O   :dxx    0.2638   0.3573  -0.7613  -0.0814  -0.0447  -3.5738
  13 O   :dyy    0.4225  -0.8437  -0.3715   0.3493   0.4714  -3.6561
  14 O   :dzz   -0.4223  -0.4831  -0.5750   0.1066  -0.4376  -3.6819
  15 H   :s      0.0245  -0.1796   0.2629  -1.0162   0.0494  -0.2883
  16 H   :s     -0.2971   1.9104  -1.3825   0.9737  -0.3155   0.8020
  17 H   :s     -0.0165  -0.1029   0.2815  -0.2882   0.0324  -0.3363
  18 H   :py     0.0643  -0.0712   0.1309  -0.1610  -0.3415  -0.1988
  19 H   :pz     0.0879  -0.0001  -0.1107   0.0381  -0.8623   0.0580

 Molecular orbitals for symmetry species 2  (B1 )
 ------------------------------------------------

    Orbital         1        2        3        4        5        6        7
   1 O   :px     0.0819  -0.0403   0.0108  -0.1313   0.0141   0.1217   1.5399
   2 O   :px     0.1941  -0.1683   0.0187  -0.0592  -0.0257   1.6013  -2.0382
   3 O   :px     0.3396  -0.0020   0.0667  -1.3510   0.3082  -2.3944   1.4609
   4 O   :px     0.3822  -0.8903  -0.0370   2.0398  -0.7722   1.4421  -0.7019
   5 O   :px     0.2591   1.3740   0.0656  -0.8684   0.0825  -0.4459   0.2130
   6 O   :dxz   -0.0383  -0.0021   0.9472   0.0925   0.5456  -0.0083   0.0025
   7 H   :px     0.0183   0.0056  -0.0833   0.0549   0.8327  -0.0113   0.0044

 Molecular orbitals for symmetry species 3  (B2 )
 ------------------------------------------------

    Orbital         1        2        3        4        5        6        7
   1 O   :py     0.0653  -0.0306   0.0081  -0.0562  -0.0104   0.1221  -0.0103
   2 O   :py     0.1529  -0.0600  -0.0127  -0.1975   0.0405   0.0827   0.0059
   3 O   :py     0.2746  -0.1667   0.0964  -0.0661  -0.1524   1.3118  -0.1680
   4 O   :py     0.2860   0.0539  -0.0558  -1.2727  -0.3338  -2.7315   0.3863
   5 O   :py     0.1253  -0.9468   1.9322   1.8395  -1.3313   1.2963  -0.1686
   6 O   :dyz   -0.0554  -0.0253  -0.0628   0.0252   1.3378   0.2320   0.3824
   7 H   :s      0.1438   0.0176  -0.0539   0.0836  -0.3943  -0.2494   0.1431
   8 H   :s      0.1473  -0.1648  -1.1763   0.8659   2.1172   1.2338  -0.0498
   9 H   :s      0.0368   2.0991  -0.4183  -1.9482  -0.1311  -1.1970   0.1506
  10 H   :py    -0.0096   0.0204   0.0307  -0.0153  -0.0445  -0.1808  -0.4615
  11 H   :pz     0.0163  -0.0225  -0.0098   0.0090   0.1201   0.0658  -0.5722

    Orbital         8        9       10       11
   1 O   :py     0.0541   0.0372   0.1201   1.5515
   2 O   :py    -0.0647   0.1597   1.6501  -2.1181
   3 O   :py     0.7951  -0.2746  -2.6103   1.6274
   4 O   :py    -0.9576   2.8181   1.2723  -0.7636
   5 O   :py     0.2767   0.2531  -0.8272   0.3994
   6 O   :dyz    0.5781  -1.8478   0.3032  -0.0740
   7 H   :s      0.9279  -0.7307   0.1517  -0.0444
   8 H   :s     -0.6677  -2.1365   0.1993  -0.0076
   9 H   :s      0.1823   0.4026   0.4000  -0.2168
  10 H   :py     0.3953   0.8963  -0.2566   0.0784
  11 H   :pz    -0.1816  -0.8537   0.2111  -0.0610

 Molecular orbitals for symmetry species 4  (A2 )
 ------------------------------------------------

    Orbital         1        2
   1 O   :dxy    0.9129   0.7003
   2 H   :px     0.1116  -0.8095

  Total CPU  time used in SIRIUS :   0.02 seconds
  Total wall time used in SIRIUS :   0.02 seconds

 
     Date and time (Linux)  : Tue Jan 10 11:43:12 2017
     Host name              : TESD11                                  

 NOTE:    1 informational messages have been issued.
 Check output, result, and error files for "INFO".

 NOTE:    1 warnings have been issued.
 Check output, result, and error files for "WARNING".


                     .---------------------------------------.
                     | End of Wave Function Section (SIRIUS) |
                     `---------------------------------------'



                    .------------------------------------------.
                    | Starting in Coupled Cluster Section (CC) |
                    `------------------------------------------'

  

 *******************************************************************************
 *******************************************************************************
 *                                                                             *
 *                                                                             *
 *                    START OF COUPLED CLUSTER CALCULATION                     *
 *                                                                             *
 *                                                                             *
 *******************************************************************************
 *******************************************************************************



 CCR12 ANSATZ =   0

 CCR12 APPROX =   0

   

 *******************************************************************
 *                                                                 *
 *----------                                             >---------*
 *---------- OUTPUT FROM COUPLED CLUSTER ENERGY PROGRAM  >---------*
 *----------                                             >---------*
 *                                                                 *
 *******************************************************************


             The Direct Coupled Cluster Energy Program
             -----------------------------------------


          Number of t1 amplitudes                 :        64
          Number of t2 amplitudes                 :      4175
          Total number of amplitudes in ccsd      :      4239

 Iter.  1: Coupled cluster MP2   energy :     -76.3109682858375891





             +-------------------------------------------------------+
             ! Final results from the Coupled Cluster energy program !
             +-------------------------------------------------------+



            Total SCF   energy:                   -76.0607842187

            Total MP2   energy:                   -76.3109682858

  

 *******************************************************************************
 *******************************************************************************
 *                                                                             *
 *                                                                             *
 *                   SUMMARY OF COUPLED CLUSTER CALCULATION                    *
 *                                                                             *
 *                                                                             *
 *******************************************************************************
 *******************************************************************************

                                                                                
                                                                                
            Total SCF   energy:                   -76.0607842187                
            Total MP2   energy:                   -76.3109682858                
  

 *******************************************************************************
 *******************************************************************************
 *                                                                             *
 *                                                                             *
 *                      END OF COUPLED CLUSTER CALCULATION                     *
 *                                                                             *
 *                                                                             *
 *******************************************************************************
 *******************************************************************************


 CPU and wall time for CC :       0.008       0.011

 
     Date and time (Linux)  : Tue Jan 10 11:43:12 2017
     Host name              : TESD11                                  


                      .-------------------------------------.
                      | End of Coupled Cluster Section (CC) |
                      `-------------------------------------'



        *****************************************************************
        ******** Output from **PROPE input processing for ABACUS ********
        *****************************************************************



      SOPPA : Second Order Polarization Propagator Approximation



 The following molecular properties will be calculated in this run:
 ------------------------------------------------------------------

 Default print level:        2

      Electronic excitation energies 
      No mass-velocity energy correction calculated
      No Darwin energy correction calculated
      Natural orbital connection is used
      for perturbation dependent basis sets.


 Changes of defaults in SOPPA:
 -----------------------------

 AO integral driven SOPPA :
    (Ref.: K. L. Bak, H. Koch, J. Oddershede, O. Christiansen and S. P. A. Sauer
     J. Chem. Phys. 112, 4173-4185 (2000))
 The last :     0    2    1    1    0    0    0    0 excitation energies
    are only converged to :  1.00E-02


 Changes of defaults for .EXCITA:
 --------------------------------

 Number of excitation energies:    5    7    6    6
 Print level          :    2
 Integral print level :    2
 Convergence threshold: 1.00E-04
 Maximum iterations   :   60
 Conventional rotational strength
 Dipole strength


                                 Isotopic Masses
                                 ---------------

                           O          15.994915
                           H   _1      1.007825
                           H   _2      1.007825

                       Total mass:    18.010565 amu
                       Natural abundance:  99.730 %

 Center-of-mass coordinates (a.u.):    0.000000    0.000000   -0.000015

 Center of mass dipole origin  :    0.000000    0.000000   -0.000015

 Center of mass gauge origin   :    0.000000    0.000000   -0.000015


                 .------------------------------------------------.
                 | Starting in Static Property Section (ABACUS) - |
                 `------------------------------------------------'


 
     Date and time (Linux)  : Tue Jan 10 11:43:12 2017
     Host name              : TESD11                                  


                            **************************
                            *** Output from TROINV ***
                            **************************



  Translational and rotational coordinates
  ----------------------------------------


  Symmetry  1

        Translation along Z axis

  Symmetry  2

        Translation along X axis
        Rotation around Y axis

  Symmetry  3

        Translation along Y axis
        Rotation around X axis

  Symmetry  4

        Rotation around Z axis


                  **********************************************
                  *** ABACUS - Excitation energies (.EXCITA) ***
                  **********************************************


 Maximum number of trial vectors for each excitation is  3


 -----------------------------------
 SOPPA:
 Perturbation symmetry     :       1
 p-h variables             :     128
 2p-2h variables           :    8350
 Total number of variables :    8478
 -----------------------------------

  ******************************************************************
                 SOPPA  iterations, Excitation symmetry 1
  ******************************************************************

  ==================================================================
             1. SOPPA  iteration, Excitation symmetry 1
  ==================================================================

            --------------------------------------------------
            Excitation   Energy (au)     Residual    Converged
            --------------------------------------------------
                 1       0.49964138     5.9329D-01       no
                 2       0.70110483     5.2819D-01       no
                 3       0.73690324     5.4800D-01       no
                 4       0.86849731     6.1582D-01       no
                 5       0.97008071     7.2726D-01       no
            --------------------------------------------------

  ==================================================================
             2. SOPPA  iteration, Excitation symmetry 1
  ==================================================================

            --------------------------------------------------
            Excitation   Energy (au)     Residual    Converged
            --------------------------------------------------
                 1       0.36902860     6.5302D-02       no
                 2       0.59204804     7.6506D-02       no
                 3       0.62985626     5.2919D-02       no
                 4       0.72199670     1.0133D-01       no
                 5       0.79383577     1.5392D-01       no
            --------------------------------------------------

  ==================================================================
             3. SOPPA  iteration, Excitation symmetry 1
  ==================================================================

            --------------------------------------------------
            Excitation   Energy (au)     Residual    Converged
            --------------------------------------------------
                 1       0.36753191     2.3600D-02       no
                 2       0.58999964     2.7445D-02       no
                 3       0.62900128     1.6645D-02       no
                 4       0.71958861     2.3681D-02       no
                 5       0.78811910     4.6243D-02       no
            --------------------------------------------------

  ==================================================================
             4. SOPPA  iteration, Excitation symmetry 1
  ==================================================================

            --------------------------------------------------
            Excitation   Energy (au)     Residual    Converged
            --------------------------------------------------
                 1       0.36733489     4.0083D-03       no
                 2       0.58973238     5.4401D-03       no
                 3       0.62890489     4.2301D-03       no
                 4       0.71937534     5.2951D-03       no
                 5       0.78716533     1.3898D-02       no
            --------------------------------------------------

  ==================================================================
             5. SOPPA  iteration, Excitation symmetry 1
  ==================================================================

            --------------------------------------------------
            Excitation   Energy (au)     Residual    Converged
            --------------------------------------------------
                 1       0.36733106     6.5117D-04       no
                 2       0.58971972     1.9460D-03       no
                 3       0.62889657     1.6585D-03       no
                 4       0.71936585     1.5382D-03       no
                 5       0.78703292     1.0607D-02       no
            --------------------------------------------------

  ==================================================================
             6. SOPPA  iteration, Excitation symmetry 1
  ==================================================================

            --------------------------------------------------
            Excitation   Energy (au)     Residual    Converged
            --------------------------------------------------
                 1       0.36733095     1.2413D-04       no
                 2       0.58971826     6.9850D-04       no
                 3       0.62889555     5.3372D-04       no
                 4       0.71936519     9.5044D-04       no
                 5       0.78696019     6.8040D-03       no
            --------------------------------------------------

  ==================================================================
             7. SOPPA  iteration, Excitation symmetry 1
  ==================================================================

            --------------------------------------------------
            Excitation   Energy (au)     Residual    Converged
            --------------------------------------------------
                 1       0.36733095     2.4340D-05      yes
                 2       0.58971812     2.0407D-04       no
                 3       0.62889549     1.3600D-04       no
                 4       0.71936490     2.5439D-04       no
                 5       0.78694069     3.2535D-03       no
            --------------------------------------------------

  ==================================================================
             8. SOPPA  iteration, Excitation symmetry 1
  ==================================================================

            --------------------------------------------------
            Excitation   Energy (au)     Residual    Converged
            --------------------------------------------------
                 1       0.36733095     1.5101D-05      yes
                 2       0.58971810     5.3911D-05      yes
                 3       0.62889548     3.9762D-05      yes
                 4       0.71936489     1.4787D-04       no
                 5       0.78693653     1.3215D-03       no
            --------------------------------------------------

  ==================================================================
             9. SOPPA  iteration, Excitation symmetry 1
  ==================================================================

            --------------------------------------------------
            Excitation   Energy (au)     Residual    Converged
            --------------------------------------------------
                 1       0.36733095     1.4787D-05      yes
                 2       0.58971810     4.8806D-05      yes
                 3       0.62889548     3.4983D-05      yes
                 4       0.71936488     5.7013D-05      yes
                 5       0.78693597     5.8681D-04       no
            --------------------------------------------------

  ==================================================================
            10. SOPPA  iteration, Excitation symmetry 1
  ==================================================================

            --------------------------------------------------
            Excitation   Energy (au)     Residual    Converged
            --------------------------------------------------
                 1       0.36733095     1.4623D-05      yes
                 2       0.58971810     4.7647D-05      yes
                 3       0.62889548     3.3614D-05      yes
                 4       0.71936488     5.6609D-05      yes
                 5       0.78693589     1.9590D-04       no
            --------------------------------------------------

  ==================================================================
            11. SOPPA  iteration, Excitation symmetry 1
  ==================================================================

            --------------------------------------------------
            Excitation   Energy (au)     Residual    Converged
            --------------------------------------------------
                 1       0.36733095     1.4543D-05      yes
                 2       0.58971810     4.6158D-05      yes
                 3       0.62889548     3.2045D-05      yes
                 4       0.71936488     5.6592D-05      yes
                 5       0.78693588     1.1285D-04       no
            --------------------------------------------------

  ==================================================================
            12. SOPPA  iteration, Excitation symmetry 1
  ==================================================================

            --------------------------------------------------
            Excitation   Energy (au)     Residual    Converged
            --------------------------------------------------
                 1       0.36733095     1.4540D-05      yes
                 2       0.58971810     4.6695D-05      yes
                 3       0.62889548     3.2553D-05      yes
                 4       0.71936488     5.7403D-05      yes
                 5       0.78693588     1.0969D-04       no
            --------------------------------------------------

  ==================================================================
            13. SOPPA  iteration, Excitation symmetry 1
  ==================================================================

            --------------------------------------------------
            Excitation   Energy (au)     Residual    Converged
            --------------------------------------------------
                 1       0.36733095     1.4486D-05      yes
                 2       0.58971810     4.6579D-05      yes
                 3       0.62889548     3.2457D-05      yes
                 4       0.71936488     5.7065D-05      yes
                 5       0.78693588     8.2615D-05      yes
            --------------------------------------------------

 -------------------------------------------------------------
 Iterations stopped since: 
 -------------------------
 All of the excitations are converged.
 -------------------------------------------------------------


 --------------------------------------------------------------

                 Singlet Excitation Energies

 --------------------------------------------------------------
 Excitation symmetry  1, state no.  1

      SOPPA excitation energy :  0.36733095     au
                                   9.9955836     eV
                                   80619.824     cm-1
                                   964.42726     kj / mole

 1p-1h + 1h-1p excitation weight:  93.92 + -0.09  =  93.83 %
 2p-2h + 2h-2p excitation weight:   6.17 + -0.00  =   6.17 %

 |=====================================================|
 |          | Symmetry|  Orbital index  |   Amplitude  |
 |          | index   |   a   b   i   j |              |
 |=====================================================|
 |    exci. | 1   1   |   1       3     |   -0.967776  |
 |    exci. | 1   1   |   3       3     |    0.100310  |
 |-----------------------------------------------------|
 |    exci. | 1 1 1 1 |   2   1   3   3 |    0.123774  |
 |    exci. | 2 1 2 1 |   1   1   1   3 |    0.115076  |
 |=====================================================|

 Printed all single excitation amplitudes greater than  0.100000
 Printed all double excitation amplitudes greater than 0.100000

 --------------------------------------------------------------

                 Singlet Excitation Energies

 --------------------------------------------------------------
 Excitation symmetry  1, state no.  2

      SOPPA excitation energy :  0.58971810     au
                                   16.047046     eV
                                   129428.16     cm-1
                                   1548.3046     kj / mole

 1p-1h + 1h-1p excitation weight:  95.43 + -0.02  =  95.41 %
 2p-2h + 2h-2p excitation weight:   4.59 + -0.00  =   4.59 %

 |=====================================================|
 |          | Symmetry|  Orbital index  |   Amplitude  |
 |          | index   |   a   b   i   j |              |
 |=====================================================|
 |    exci. | 2   2   |   1       1     |    0.609537  |
 |    exci. | 3   3   |   1       1     |   -0.762035  |
 |    exci. | 3   3   |   3       1     |   -0.140378  |
 |-----------------------------------------------------|
 |    exci. | 2 1 2 1 |   1   1   1   2 |   -0.025891  |
 |    exci. | 2 1 2 1 |   1   4   1   2 |    0.023838  |
 |    exci. | 2 1 2 1 |   1   1   1   3 |    0.022741  |
 |    exci. | 2 1 2 1 |   1   2   1   3 |   -0.052414  |
 |    exci. | 2 1 2 1 |   1   3   1   3 |   -0.026800  |
 |    exci. | 3 1 3 1 |   1   1   1   2 |    0.037080  |
 |    exci. | 3 1 3 1 |   1   4   1   2 |   -0.029871  |
 |    exci. | 3 1 3 1 |   1   1   1   3 |   -0.036992  |
 |    exci. | 3 1 3 1 |   1   2   1   3 |    0.063138  |
 |    exci. | 3 1 3 1 |   1   3   1   3 |    0.026772  |
 |    exci. | 2 2 2 2 |   1   1   1   1 |   -0.079639  |
 |    exci. | 3 2 3 2 |   1   1   1   1 |    0.037100  |
 |    exci. | 3 2 3 2 |   3   1   1   1 |   -0.059224  |
 |    exci. | 3 2 3 2 |   5   1   1   1 |    0.027028  |
 |    exci. | 3 2 3 2 |   1   3   1   1 |    0.034376  |
 |    exci. | 3 3 3 3 |   1   1   1   1 |    0.071578  |
 |    exci. | 3 3 3 3 |   3   1   1   1 |    0.048956  |
 |    exci. | 3 3 3 3 |   4   1   1   1 |    0.022711  |
 |    exci. | 2 2 1 1 |   2   1   3   2 |    0.021390  |
 |    exci. | 4 2 3 1 |   1   1   1   2 |    0.023737  |
 |    exci. | 1 1 2 2 |   3   1   1   1 |   -0.020131  |
 |    exci. | 3 3 1 1 |   2   1   3   2 |   -0.025213  |
 |    exci. | 3 3 1 1 |   3   1   3   2 |    0.021888  |
 |    exci. | 3 3 1 1 |   4   1   3   2 |   -0.024618  |
 |    exci. | 4 3 2 1 |   1   1   1   2 |   -0.036889  |
 |    exci. | 1 3 3 1 |   3   1   1   2 |    0.022553  |
 |    exci. | 1 1 3 3 |   3   1   1   1 |   -0.029162  |
 |=====================================================|

 Printed all single excitation amplitudes greater than  0.100000
 Printed all double excitation amplitudes greater than 0.020000

 --------------------------------------------------------------

                 Singlet Excitation Energies

 --------------------------------------------------------------
 Excitation symmetry  1, state no.  3

      SOPPA excitation energy :  0.62889548     au
                                   17.113116     eV
                                   138026.60     cm-1
                                   1651.1648     kj / mole

 1p-1h + 1h-1p excitation weight:  95.23 + -0.21  =  95.02 %
 2p-2h + 2h-2p excitation weight:   4.99 + -0.00  =   4.98 %

 |=====================================================|
 |          | Symmetry|  Orbital index  |   Amplitude  |
 |          | index   |   a   b   i   j |              |
 |=====================================================|
 |    exci. | 1   1   |   2       3     |    0.547820  |
 |    exci. | 1   1   |   3       3     |    0.117514  |
 |    exci. | 2   2   |   1       1     |   -0.638556  |
 |    exci. | 3   3   |   1       1     |   -0.493811  |
 |-----------------------------------------------------|
 |    exci. | 3 2 3 2 |   1   1   1   1 |    0.102652  |
 |=====================================================|

 Printed all single excitation amplitudes greater than  0.100000
 Printed all double excitation amplitudes greater than 0.100000

 --------------------------------------------------------------

                 Singlet Excitation Energies

 --------------------------------------------------------------
 Excitation symmetry  1, state no.  4

      SOPPA excitation energy :  0.71936488     au
                                   19.574914     eV
                                   157882.34     cm-1
                                   1888.6922     kj / mole

 1p-1h + 1h-1p excitation weight:  93.75 + -0.59  =  93.16 %
 2p-2h + 2h-2p excitation weight:   6.84 + -0.01  =   6.84 %

 |=====================================================|
 |          | Symmetry|  Orbital index  |   Amplitude  |
 |          | index   |   a   b   i   j |              |
 |=====================================================|
 |    exci. | 1   1   |   2       3     |    0.753593  |
 |    exci. | 1   1   |   3       3     |   -0.408854  |
 |    exci. | 2   2   |   1       1     |    0.331984  |
 |    exci. | 3   3   |   1       1     |    0.294273  |
 |    exci. | 3   3   |   3       1     |   -0.118166  |
 |-----------------------------------------------------|
 |    exci. | 2 1 2 1 |   1   2   1   3 |   -0.123084  |
 |=====================================================|

 Printed all single excitation amplitudes greater than  0.100000
 Printed all double excitation amplitudes greater than 0.100000

 --------------------------------------------------------------

                 Singlet Excitation Energies

 --------------------------------------------------------------
 Excitation symmetry  1, state no.  5

      SOPPA excitation energy :  0.78693588     au
                                   21.413615     eV
                                   172712.46     cm-1
                                   2066.0998     kj / mole

 1p-1h + 1h-1p excitation weight:  94.81 + -0.51  =  94.30 %
 2p-2h + 2h-2p excitation weight:   5.71 + -0.00  =   5.70 %

 |=====================================================|
 |          | Symmetry|  Orbital index  |   Amplitude  |
 |          | index   |   a   b   i   j |              |
 |=====================================================|
 |    exci. | 1   1   |   2       3     |    0.259641  |
 |    exci. | 1   1   |   3       3     |    0.861172  |
 |    exci. | 2   2   |   1       1     |    0.209810  |
 |    exci. | 3   3   |   1       1     |    0.220469  |
 |    exci. | 3   3   |   2       1     |    0.100823  |
 |    exci. | 3   3   |   3       1     |   -0.196850  |
 |-----------------------------------------------------|
 |    exci. | 1 1 1 1 |   1   1   3   2 |   -0.020340  |
 |    exci. | 1 1 1 1 |   3   2   3   2 |   -0.021820  |
 |    exci. | 1 1 1 1 |   5   3   3   2 |   -0.036507  |
 |    exci. | 1 1 1 1 |   3   4   3   2 |    0.024866  |
 |    exci. | 1 1 1 1 |   2   1   3   3 |   -0.038337  |
 |    exci. | 1 1 1 1 |   3   1   3   3 |    0.029374  |
 |    exci. | 1 1 1 1 |   2   2   3   3 |   -0.023375  |
 |    exci. | 1 1 1 1 |   3   2   3   3 |   -0.077850  |
 |    exci. | 1 1 1 1 |   3   3   3   3 |   -0.053832  |
 |    exci. | 1 1 1 1 |   5   3   3   3 |   -0.049583  |
 |    exci. | 2 1 2 1 |   2   3   1   2 |    0.033696  |
 |    exci. | 2 1 2 1 |   1   1   1   3 |   -0.037522  |
 |    exci. | 2 1 2 1 |   1   2   1   3 |   -0.041811  |
 |    exci. | 2 1 2 1 |   1   3   1   3 |   -0.082680  |
 |    exci. | 2 1 2 1 |   2   3   1   3 |    0.044021  |
 |    exci. | 2 1 2 1 |   3   3   1   3 |   -0.026437  |
 |    exci. | 3 1 3 1 |   2   3   1   2 |    0.025210  |
 |    exci. | 3 1 3 1 |   3   3   1   2 |   -0.027236  |
 |    exci. | 3 1 3 1 |   4   3   1   2 |    0.022780  |
 |    exci. | 3 1 3 1 |   1   2   1   3 |   -0.041011  |
 |    exci. | 3 1 3 1 |   1   3   1   3 |   -0.071929  |
 |    exci. | 3 1 3 1 |   2   3   1   3 |    0.026277  |
 |    exci. | 3 1 3 1 |   3   3   1   3 |   -0.072549  |
 |    exci. | 3 1 3 1 |   5   3   1   3 |    0.026269  |
 |    exci. | 2 2 2 2 |   1   1   1   1 |   -0.034756  |
 |    exci. | 3 2 3 2 |   1   1   1   1 |   -0.057476  |
 |    exci. | 3 3 3 3 |   1   1   1   1 |   -0.033386  |
 |    exci. | 1 2 2 1 |   3   2   1   3 |    0.024447  |
 |    exci. | 3 3 1 1 |   2   2   3   3 |   -0.022991  |
 |    exci. | 3 3 1 1 |   3   2   3   3 |    0.032648  |
 |    exci. | 1 3 3 1 |   1   2   1   3 |   -0.023414  |
 |    exci. | 1 3 3 1 |   3   2   1   3 |    0.021240  |
 |    exci. | 1 3 3 1 |   3   3   1   3 |   -0.035372  |
 |=====================================================|

 Printed all single excitation amplitudes greater than  0.100000
 Printed all double excitation amplitudes greater than 0.020000

 --------------------------------------------------------------

 ZDIPLEN  SOPPA transition moments for excitation symmetry  1
 ===================================================================
 Exci.    1p-1h        1h-1p        Total
 -------------------------------------------------------------------
   1    -0.73643 +    0.03317 =   -0.70327
   2     0.39725 +   -0.02033 =    0.37692
   3     0.36251 +   -0.02996 =    0.33255
   4     0.01660 +    0.03944 =    0.05604
   5    -0.00406 +    0.03959 =    0.03553
 ===================================================================

 ZDIPVEL  SOPPA transition moments for excitation symmetry  1
 ===================================================================
 Exci.    1p-1h        1h-1p        Total
 -------------------------------------------------------------------
   1     0.27068 +    0.01648 =    0.28717
   2    -0.20085 +   -0.02101 =   -0.22186
   3    -0.21003 +   -0.01375 =   -0.22379
   4    -0.04856 +    0.03056 =   -0.01800
   5    -0.02516 +    0.02083 =   -0.00434
 ===================================================================

 XXSECMOM SOPPA transition moments for excitation symmetry  1
 ===================================================================
 Exci.    1p-1h        1h-1p        Total
 -------------------------------------------------------------------
   1    -0.01416 +   -0.04188 =   -0.05604
   2     1.13495 +    0.00028 =    1.13523
   3    -1.43420 +    0.08488 =   -1.34932
   4     1.50862 +   -0.16544 =    1.34319
   5     0.84639 +   -0.14460 =    0.70179
 ===================================================================

 YYSECMOM SOPPA transition moments for excitation symmetry  1
 ===================================================================
 Exci.    1p-1h        1h-1p        Total
 -------------------------------------------------------------------
   1     0.55182 +   -0.07633 =    0.47549
   2    -1.19927 +   -0.00125 =   -1.20052
   3    -1.17352 +    0.11980 =   -1.05372
   4     0.79353 +   -0.18677 =    0.60676
   5     1.13594 +   -0.18947 =    0.94647
 ===================================================================

 ZZSECMOM SOPPA transition moments for excitation symmetry  1
 ===================================================================
 Exci.    1p-1h        1h-1p        Total
 -------------------------------------------------------------------
   1     0.53778 +   -0.05215 =    0.48563
   2    -0.23820 +    0.00371 =   -0.23450
   3     0.27023 +    0.11214 =    0.38236
   4     2.18420 +   -0.18161 =    2.00258
   5     0.86955 +   -0.15317 =    0.71638
 ===================================================================

 -----------------------------------
 SOPPA:
 Perturbation symmetry     :       2
 p-h variables             :      72
 2p-2h variables           :    6720
 Total number of variables :    6792
 -----------------------------------

  ******************************************************************
                 SOPPA  iterations, Excitation symmetry 2
  ******************************************************************

  ==================================================================
             1. SOPPA  iteration, Excitation symmetry 2
  ==================================================================

            --------------------------------------------------
            Excitation   Energy (au)     Residual    Converged
            --------------------------------------------------
                 1       0.39943624     5.9443D-01       no
                 2       0.68988825     5.5586D-01       no
                 3       0.77286395     5.4659D-01       no
                 4       0.82374963     6.3973D-01       no
                 5       1.13897254     6.1646D-01       no
                 6       1.36372263     4.9537D-02       no
                 7       1.47315569     1.4823D-02       no
            --------------------------------------------------

  ==================================================================
             2. SOPPA  iteration, Excitation symmetry 2
  ==================================================================

            --------------------------------------------------
            Excitation   Energy (au)     Residual    Converged
            --------------------------------------------------
                 1       0.27625683     2.2663D-02       no
                 2       0.58463505     4.4009D-02       no
                 3       0.67649742     4.9183D-02       no
                 4       0.68340860     5.5736D-02       no
                 5       1.02440225     5.1303D-02       no
                 6       1.36233611     1.0103D-02       no
                 7       1.47287260     1.2741D-02       no
            --------------------------------------------------

  ==================================================================
             3. SOPPA  iteration, Excitation symmetry 2
  ==================================================================

            --------------------------------------------------
            Excitation   Energy (au)     Residual    Converged
            --------------------------------------------------
                 1       0.27617035     2.7127D-03       no
                 2       0.58423697     7.1245D-03       no
                 3       0.67555526     1.7322D-02       no
                 4       0.68248207     1.3147D-02       no
                 5       1.02370686     1.4358D-02       no
                 6       1.36169887     5.8399D-02       no
                 7       1.39072387     4.3237D-01       no
            --------------------------------------------------

  ==================================================================
             4. SOPPA  iteration, Excitation symmetry 2
  ==================================================================

            --------------------------------------------------
            Excitation   Energy (au)     Residual    Converged
            --------------------------------------------------
                 1       0.27616888     3.5323D-04       no
                 2       0.58421823     7.0186D-04       no
                 3       0.67547940     2.6474D-03       no
                 4       0.68244191     1.3673D-03       no
                 5       1.02360166     2.2044D-03       no
                 6       1.25994177     9.9299D-02       no
                 7       1.36232495     5.7517D-03      yes
            --------------------------------------------------

  ==================================================================
             5. SOPPA  iteration, Excitation symmetry 2
  ==================================================================

            --------------------------------------------------
            Excitation   Energy (au)     Residual    Converged
            --------------------------------------------------
                 1       0.27616886     3.5979D-05      yes
                 2       0.58421813     9.1632D-05      yes
                 3       0.67547841     1.0357D-03       no
                 4       0.68244154     1.4400D-04       no
                 5       1.02359967     6.1908D-04       no
                 6       1.25529313     3.0089D-02       no
                 7       1.36231205     5.8099D-03      yes
            --------------------------------------------------

  ==================================================================
             6. SOPPA  iteration, Excitation symmetry 2
  ==================================================================

            --------------------------------------------------
            Excitation   Energy (au)     Residual    Converged
            --------------------------------------------------
                 1       0.27616886     3.2607D-05      yes
                 2       0.58421813     6.6121D-05      yes
                 3       0.67547817     6.0087D-04       no
                 4       0.68244154     1.7572D-05      yes
                 5       1.02359960     4.4197D-04       no
                 6       1.25461963     1.5600D-02       no
                 7       1.36230036     5.6362D-03      yes
            --------------------------------------------------

  ==================================================================
             7. SOPPA  iteration, Excitation symmetry 2
  ==================================================================

            --------------------------------------------------
            Excitation   Energy (au)     Residual    Converged
            --------------------------------------------------
                 1       0.27616886     2.8133D-05      yes
                 2       0.58421813     6.4602D-05      yes
                 3       0.67547809     2.7756D-04       no
                 4       0.68244154     1.6263D-05      yes
                 5       1.02359957     3.4523D-04       no
                 6       1.25447490     1.1167D-02       no
                 7       1.36229799     4.6439D-03      yes
            --------------------------------------------------

  ==================================================================
             8. SOPPA  iteration, Excitation symmetry 2
  ==================================================================

            --------------------------------------------------
            Excitation   Energy (au)     Residual    Converged
            --------------------------------------------------
                 1       0.27616886     2.8468D-05      yes
                 2       0.58421813     6.3229D-05      yes
                 3       0.67547809     2.7071D-04       no
                 4       0.68244154     1.5981D-05      yes
                 5       1.02359957     3.2664D-04       no
                 6       1.25443764     3.2972D-03      yes
                 7       1.36229714     4.6562D-03      yes
            --------------------------------------------------

  ==================================================================
             9. SOPPA  iteration, Excitation symmetry 2
  ==================================================================

            --------------------------------------------------
            Excitation   Energy (au)     Residual    Converged
            --------------------------------------------------
                 1       0.27616886     2.7564D-05      yes
                 2       0.58421813     6.3305D-05      yes
                 3       0.67547808     1.4961D-04       no
                 4       0.68244154     1.5871D-05      yes
                 5       1.02359957     3.4363D-04       no
                 6       1.25443742     3.3695D-03      yes
                 7       1.36229712     4.6706D-03      yes
            --------------------------------------------------

  ==================================================================
            10. SOPPA  iteration, Excitation symmetry 2
  ==================================================================

            --------------------------------------------------
            Excitation   Energy (au)     Residual    Converged
            --------------------------------------------------
                 1       0.27616886     2.7261D-05      yes
                 2       0.58421813     6.1054D-05      yes
                 3       0.67547807     1.1781D-04       no
                 4       0.68244154     1.4957D-05      yes
                 5       1.02359955     2.4669D-04       no
                 6       1.25443740     3.3316D-03      yes
                 7       1.36229694     4.5115D-03      yes
            --------------------------------------------------

  ==================================================================
            11. SOPPA  iteration, Excitation symmetry 2
  ==================================================================

            --------------------------------------------------
            Excitation   Energy (au)     Residual    Converged
            --------------------------------------------------
                 1       0.27616886     2.7010D-05      yes
                 2       0.58421813     6.0500D-05      yes
                 3       0.67547807     1.0510D-04       no
                 4       0.68244154     1.4722D-05      yes
                 5       1.02359955     1.5759D-04       no
                 6       1.25443738     3.3254D-03      yes
                 7       1.36229693     4.5368D-03      yes
            --------------------------------------------------

  ==================================================================
            12. SOPPA  iteration, Excitation symmetry 2
  ==================================================================

            --------------------------------------------------
            Excitation   Energy (au)     Residual    Converged
            --------------------------------------------------
                 1       0.27616886     2.6924D-05      yes
                 2       0.58421813     6.0403D-05      yes
                 3       0.67547807     5.9944D-05      yes
                 4       0.68244154     1.4696D-05      yes
                 5       1.02359954     1.0833D-04       no
                 6       1.25443732     3.4311D-03      yes
                 7       1.36229691     4.5205D-03      yes
            --------------------------------------------------

  ==================================================================
            13. SOPPA  iteration, Excitation symmetry 2
  ==================================================================

            --------------------------------------------------
            Excitation   Energy (au)     Residual    Converged
            --------------------------------------------------
                 1       0.27616886     2.6916D-05      yes
                 2       0.58421813     6.0316D-05      yes
                 3       0.67547807     5.6529D-05      yes
                 4       0.68244154     1.4689D-05      yes
                 5       1.02359954     1.0651D-04       no
                 6       1.25443731     3.4420D-03      yes
                 7       1.36229689     4.5182D-03      yes
            --------------------------------------------------

[...]

 --------------------------------------------------------------

                 Singlet Excitation Energies

 --------------------------------------------------------------
 Excitation symmetry  4, state no.  6

      SOPPA excitation energy :   1.4170714     au
                                   38.560474     eV
                                   311011.22     cm-1
                                   3720.5204     kj / mole

 1p-1h + 1h-1p excitation weight:   0.50 + -0.00  =   0.50 %
 2p-2h + 2h-2p excitation weight:  99.50 + -0.00  =  99.50 %

 |=====================================================|
 |          | Symmetry|  Orbital index  |   Amplitude  |
 |          | index   |   a   b   i   j |              |
 |=====================================================|
 |    exci. | 4   1   |   1       3     |   -0.068126  |
 |-----------------------------------------------------|
 |    exci. | 3 2 1 1 |   9   4   2   3 |   -1.123762  |
 |    exci. | 2 1 3 1 |   5   3   1   2 |   -0.343331  |
 |=====================================================|

 Printed all single excitation amplitudes greater than  0.020000
 Printed all double excitation amplitudes greater than 0.100000

 --------------------------------------------------------------

 ZANGMOM  SOPPA transition moments for excitation symmetry  4
 ===================================================================
 Exci.    1p-1h        1h-1p        Total
 -------------------------------------------------------------------
   1     0.15336 +   -0.00189 =    0.15147
   2     0.27763 +   -0.00476 =    0.27287
   3     0.10842 +   -0.00139 =    0.10702
   4    -0.07662 +    0.00104 =   -0.07558
   5     0.27160 +   -0.00436 =    0.26724
   6    -0.01808 +    0.00034 =   -0.01773
 ===================================================================

 XYSECMOM SOPPA transition moments for excitation symmetry  4
 ===================================================================
 Exci.    1p-1h        1h-1p        Total
 -------------------------------------------------------------------
   1    -0.49986 +   -0.00545 =   -0.50531
   2     0.73763 +   -0.00376 =    0.73387
   3    -0.27001 +   -0.00421 =   -0.27421
   4     0.71446 +    0.00324 =    0.71770
   5     0.07237 +   -0.00183 =    0.07053
   6     0.00581 +    0.00014 =    0.00595
 ===================================================================

 |=====================================================| 
 |     Memory statistics for AO-SOPPA subroutines      |
 |=====================================================| 
 |   Routine                  in Words         in MB   |
 |-----------------------------------------------------| 
 |  START                            0           0.0   |
 |  SO_EXCIT1.1                   4686           0.0   |
 |  SO_PRPINT                    18187           0.1   |
 |  SO_ORTH_TRN                  27768           0.2   |
 |  SO_ERES.3                    36542           0.3   |
 |  SO_ERES.4                    37370           0.3   |
 |  SO_T2M1.1                    37387           0.3   |
 |  SO_ERES.5                    38609           0.3   |
 |  SO_RES_A.1                   39209           0.3   |
 |  SO_RES_A.2                   39266           0.3   |
 |  SO_RES_A.3                   39465           0.3   |
 |  SO_RES_TCB.3                 39714           0.3   |
 |  SO_INCRED.4                  69215           0.5   |
 |  SO_OPTVEC.1                  90110           0.7   |
 |  SO_INCRED.4                 111045           0.8   |
 |  SO_OPTVEC.1                 173910           1.3   |
 |  SO_OPTVEC.1                 216160           1.6   |
 |  SO_OPTVEC.1                 245210           1.9   |
 |=====================================================| 

 |=====================================================| 
 |           Timings for AO-SOPPA subroutines          |
 |=====================================================| 
 |   Routine            cpu time   of total        sum |
 |-----------------------------------------------------| 
 |   SO_OPTVEC           0:00:03     39.8 %     39.8 % |
 |   SO_SIGAI            0:00:02     24.4 %     64.2 % |
 |   SO_RES_TCB          0:00:01     13.6 %     77.8 % |
 |   SO_ORTH_TRN         0:00:00      6.3 %     84.1 % |
 |   SO_RES_A            0:00:00      4.7 %     88.8 % |
 |   SO_RES_CB           0:00:00      3.2 %     92.0 % |
 |   SO_T2M1             0:00:00      1.3 %     93.3 % |
 |   CCTRBT              0:00:00      1.2 %     94.5 % |
 |   SO_INCRED           0:00:00      1.1 %     95.6 % |
 |   CCRDAO              0:00:00      1.0 %     96.5 % |
 |   CC_AOFOCK           0:00:00      0.7 %     97.2 % |
 |   SO_REDEV            0:00:00      0.7 %     97.9 % |
 |   SO_TRIAL2           0:00:00      0.6 %     98.5 % |
 |   SO_ERES             0:00:00      0.4 %     98.9 % |
 |   SO_RES_OVL          0:00:00      0.2 %     99.1 % |
 |   SO_ROPT             0:00:00      0.2 %     99.3 % |
 |   SO_SRES             0:00:00      0.1 %     99.4 % |
 |   SO_TRIAL1           0:00:00      0.1 %     99.4 % |
 |   SO_DIAG             0:00:00      0.1 %     99.5 % |
 |   SO_DENSAI           0:00:00      0.0 %     99.5 % |
 |   SO_ORDEIG           0:00:00      0.0 %     99.6 % |
 |   SO_RES_CD           0:00:00      0.0 %     99.6 % |
 |   SO_AODENS           0:00:00      0.0 %     99.6 % |
 |   CC_FCKMO            0:00:00      0.0 %     99.6 % |
 |   SO_GETMO            0:00:00      0.0 %     99.7 % |
 |   SO_BCKTR            0:00:00      0.0 %     99.7 % |
 |   SO_DENS             0:00:00      0.0 %     99.7 % |
 |   SO_RES_FCK          0:00:00      0.0 %     99.7 % |
 |   SO_RES_SYM          0:00:00      0.0 %     99.7 % |
 |   SO_ONEFOCK          0:00:00      0.0 %     99.7 % |
 |   SO_T2MP             0:00:00      0.0 %     99.7 % |
 |   SO_TWOFOCK          0:00:00      0.0 %     99.7 % |
 |-----------------------------------------------------| 
 |  Total CPU time       0:00:07                       |
 |=====================================================| 

 |-----------------------------------------------------| 
 |   SO_READ             0: 0: 0      1.1 %            |
 |   SO_WRITE            0: 0: 0      0.7 %            |
 |   SO_OPEN             0: 0: 0      0.2 %            |
 |   SO_CLOSE            0: 0: 0      0.0 %            |
 |-----------------------------------------------------| 

 |=====================================================| 
 |        Wall timings for AO-SOPPA subroutines        |
 |=====================================================| 
 |   Routine           wall time   of total       sum  |
 |-----------------------------------------------------| 
 |   SO_ERES             0:00:04     50.8 %     50.8 % |
 |   SO_SRES             0:00:00      0.1 %     50.8 % |
 |   SO_REDEV            0:00:03     41.6 %     92.4 % |
 |   SO_TRIAL2           0:00:01      7.1 %     99.5 % |
 |-----------------------------------------------------| 
 |   Total wall time     0: 0: 7                       |
 |=====================================================| 
  Time used in EXCITA     is       7.46 seconds


   ***************************************************************************
   ************************ FINAL RESULTS from ABACUS ************************
   ***************************************************************************


 
     Date and time (Linux)  : Tue Jan 10 11:43:20 2017
     Host name              : TESD11                                  


                             Molecular geometry (au)
                             -----------------------

 O          0.0000000000            0.0000000000            0.1241444240
 H   _1     0.0000000000            1.4315300000           -0.9852655760
 H   _2     0.0000000000           -1.4315300000           -0.9852655760





                        Molecular wave function and energy
                        ----------------------------------

     Spatial symmetry   1 ( A1  )
     Spin multiplicity  1
     2 * M_S            0
     State number       1
     Total charge       0

     Total energy        -76.0607842187 au (Hartrees)
                         -2069.71922269 eV
                           -199697.5582 kJ/mol
                            -47728.8619 kcal/mol


 ======================================================================
                               SOPPA results:
 ----------------------------------------------------------------------


@               Singlet electronic excitation energies
                --------------------------------------

               ========================================
                 Sym.   Mode   Frequency    Frequency
                ex. st.  No.      (au)         (eV)
               ----------------------------------------
                   1      1     0.367331     9.995584
                   1      2     0.589718    16.047046
                   1      3     0.628895    17.113116
                   1      4     0.719365    19.574914
                   1      5     0.786936    21.413615
               ----------------------------------------
                   2      1     0.276169     7.514937
                   2      2     0.584218    15.897384
                   2      3     0.675478    18.380693
                   2      4     0.682442    18.570179
                   2      5     1.023600    27.853560
                   2      6     1.254437    34.134975
                   2      7     1.362297    37.069984
               ----------------------------------------
                   3      1     0.442852    12.050625
                   3      2     0.517705    14.087474
                   3      3     0.697759    18.986980
                   3      4     0.830154    22.589645
                   3      5     0.834598    22.710576
                   3      6     0.944624    25.704527
               ----------------------------------------
                   4      1     0.348437     9.481461
                   4      2     0.593699    16.155373
                   4      3     0.742561    20.206105
                   4      4     0.833580    22.682874
                   4      5     1.350699    36.754400
                   4      6     1.417071    38.560474
               ========================================


@               Electric transition dipole moments (au)
                ---------------------------------------

@        Mode    Frequency       Velocity/Frequency              Length
@         No.      (au)          x       y       z         x       y       z
@==============================================================================
@  Symmetry of excited state: 1  ( A1 )
@           1     0.367331     0.0000  0.0000 -0.7818    0.0000  0.0000 -0.7033
@           2     0.589718     0.0000  0.0000  0.3762    0.0000  0.0000  0.3769
@           3     0.628895     0.0000  0.0000  0.3558    0.0000  0.0000  0.3325
@           4     0.719365     0.0000  0.0000  0.0250    0.0000  0.0000  0.0560
@           5     0.786936     0.0000  0.0000  0.0055    0.0000  0.0000  0.0355
@------------------------------------------------------------------------------
@  Symmetry of excited state: 2  ( B1 )
@           1     0.276169     0.6466  0.0000  0.0000    0.5207  0.0000  0.0000
@           2     0.584218     0.0082  0.0000  0.0000    0.0820  0.0000  0.0000
@           3     0.675478    -0.2673  0.0000  0.0000   -0.2402  0.0000  0.0000
@           4     0.682442    -0.3964  0.0000  0.0000   -0.4689  0.0000  0.0000
@           5     1.023600    -0.5431  0.0000  0.0000   -0.6601  0.0000  0.0000
@           6     1.254437     0.2583  0.0000  0.0000    0.3133  0.0000  0.0000
@           7     1.362297    -0.0293  0.0000  0.0000   -0.0317  0.0000  0.0000
@------------------------------------------------------------------------------
@  Symmetry of excited state: 3  ( B2 )
@           1     0.442852     0.0000  0.5055  0.0000    0.0000  0.4758  0.0000
@           2     0.517705     0.0000  0.8479  0.0000    0.0000  0.8329  0.0000
@           3     0.697759     0.0000  0.6521  0.0000    0.0000  0.6506  0.0000
@           4     0.830154     0.0000  0.1841  0.0000    0.0000  0.2057  0.0000
@           5     0.834598     0.0000  0.0411  0.0000    0.0000  0.0216  0.0000
@           6     0.944624     0.0000 -0.7454  0.0000    0.0000 -0.7592  0.0000
@------------------------------------------------------------------------------
@  Symmetry of excited state: 4  ( A2 )
@           1     0.348437     0.0000  0.0000  0.0000    0.0000  0.0000  0.0000
@           2     0.593699     0.0000  0.0000  0.0000    0.0000  0.0000  0.0000
@           3     0.742561     0.0000  0.0000  0.0000    0.0000  0.0000  0.0000
@           4     0.833580     0.0000  0.0000  0.0000    0.0000  0.0000  0.0000
@           5     1.350699     0.0000  0.0000  0.0000    0.0000  0.0000  0.0000
@           6     1.417071     0.0000  0.0000  0.0000    0.0000  0.0000  0.0000
@------------------------------------------------------------------------------


@               Magnetic transition dipole moments (au)
                ---------------------------------------

  ( mu_B*<0|l_i|n>, where mu_B = 0.5 is the Bohr magneton)

 Symm.  Mode   Frequency         Conventional                  London
 ex.st.  No.     (eV)        x        y       z         x        y        z
 ==============================================================================
   1      1     9.9956   -0.00000 -0.00000 -0.00000  -0.00000 -0.00000 -0.00000
   1      2    16.0470   -0.00000 -0.00000 -0.00000  -0.00000 -0.00000 -0.00000
   1      3    17.1131   -0.00000 -0.00000 -0.00000  -0.00000 -0.00000 -0.00000
   1      4    19.5749   -0.00000 -0.00000 -0.00000  -0.00000 -0.00000 -0.00000
   1      5    21.4136   -0.00000 -0.00000 -0.00000  -0.00000 -0.00000 -0.00000
 ------------------------------------------------------------------------------
   2      1     7.5149   -0.00000 -0.06289 -0.00000  -0.00000 -0.00000 -0.00000
   2      2    15.8974   -0.00000 -0.01405 -0.00000  -0.00000 -0.00000 -0.00000
   2      3    18.3807   -0.00000 -0.06788 -0.00000  -0.00000 -0.00000 -0.00000
   2      4    18.5702   -0.00000 -0.08289 -0.00000  -0.00000 -0.00000 -0.00000
   2      5    27.8536   -0.00000 -0.01727 -0.00000  -0.00000 -0.00000 -0.00000
   2      6    34.1350   -0.00000  0.02708 -0.00000  -0.00000 -0.00000 -0.00000
   2      7    37.0700   -0.00000 -0.00244 -0.00000  -0.00000 -0.00000 -0.00000
 ------------------------------------------------------------------------------
   3      1    12.0506   -0.08932 -0.00000 -0.00000  -0.00000 -0.00000 -0.00000
   3      2    14.0875    0.06949 -0.00000 -0.00000  -0.00000 -0.00000 -0.00000
   3      3    18.9870   -0.21716 -0.00000 -0.00000  -0.00000 -0.00000 -0.00000
   3      4    22.5896    0.05881 -0.00000 -0.00000  -0.00000 -0.00000 -0.00000
   3      5    22.7106    0.08786 -0.00000 -0.00000  -0.00000 -0.00000 -0.00000
   3      6    25.7045   -0.12211 -0.00000 -0.00000  -0.00000 -0.00000 -0.00000
 ------------------------------------------------------------------------------
   4      1     9.4815   -0.00000 -0.00000  0.07573  -0.00000 -0.00000 -0.00000
   4      2    16.1554   -0.00000 -0.00000  0.13643  -0.00000 -0.00000 -0.00000
   4      3    20.2061   -0.00000 -0.00000  0.05351  -0.00000 -0.00000 -0.00000
   4      4    22.6829   -0.00000 -0.00000 -0.03779  -0.00000 -0.00000 -0.00000
   4      5    36.7544   -0.00000 -0.00000  0.13362  -0.00000 -0.00000 -0.00000
   4      6    38.5605   -0.00000 -0.00000 -0.00887  -0.00000 -0.00000 -0.00000
 ------------------------------------------------------------------------------


@                  Oscillator and Scalar Rotational Strengths
                   ------------------------------------------

@   Units: 10**(-40) (esu**2)*(cm**2) (rotational strength)
@          dimensionless              (oscillator strength)

@ Symm.  Mode   Frequency    Oscillator-strength      Rotational-strength   
@ ex.st.  No.     (eV)        velocity  length     velocity  length   London
@ ==========================================================================
@  1      1     9.9956        0.1497   0.1211      -0.000   -0.000   -0.000
@  1      2    16.0470        0.0556   0.0559      -0.000   -0.000   -0.000
@  1      3    17.1131        0.0531   0.0464      -0.000   -0.000   -0.000
@  1      4    19.5749        0.0003   0.0015      -0.000   -0.000   -0.000
@  1      5    21.4136        0.0000   0.0007      -0.000   -0.000   -0.000
@ --------------------------------------------------------------------------
@  2      1     7.5149        0.0770   0.0499      -0.000   -0.000   -0.000
@  2      2    15.8974        0.0000   0.0026      -0.000   -0.000   -0.000
@  2      3    18.3807        0.0322   0.0260      -0.000   -0.000   -0.000
@  2      4    18.5702        0.0715   0.1001      -0.000   -0.000   -0.000
@  2      5    27.8536        0.2013   0.2974      -0.000   -0.000   -0.000
@  2      6    34.1350        0.0558   0.0821      -0.000   -0.000   -0.000
@  2      7    37.0700        0.0008   0.0009      -0.000   -0.000   -0.000
@ --------------------------------------------------------------------------
@  3      1    12.0506        0.0755   0.0668      -0.000   -0.000   -0.000
@  3      2    14.0875        0.2481   0.2394      -0.000   -0.000   -0.000
@  3      3    18.9870        0.1978   0.1969      -0.000   -0.000   -0.000
@  3      4    22.5896        0.0188   0.0234      -0.000   -0.000   -0.000
@  3      5    22.7106        0.0009   0.0003      -0.000   -0.000   -0.000
@  3      6    25.7045        0.3499   0.3630      -0.000   -0.000   -0.000
@ --------------------------------------------------------------------------
@  4      1     9.4815        0.0000   0.0000      -0.000   -0.000   -0.000
@  4      2    16.1554        0.0000   0.0000      -0.000   -0.000   -0.000
@  4      3    20.2061        0.0000   0.0000      -0.000   -0.000   -0.000
@  4      4    22.6829        0.0000   0.0000      -0.000   -0.000   -0.000
@  4      5    36.7544        0.0000   0.0000      -0.000   -0.000   -0.000
@  4      6    38.5605        0.0000   0.0000      -0.000   -0.000   -0.000
@ --------------------------------------------------------------------------


   Interatomic separations (in Angstrom):
   --------------------------------------

            O           H   _1      H   _2
            ------      ------      ------
 O     :    0.000000
 H   _1:    0.958391    0.000000
 H   _2:    0.958391    1.515066    0.000000


  Max    interatomic separation is    1.5151 Angstrom (    2.8631 Bohr)
  between atoms    3 and    2, "H   _2" and "H   _1".

  Min HX interatomic separation is    0.9584 Angstrom (    1.8111 Bohr)


  Bond distances (Angstrom):
  --------------------------

                  atom 1     atom 2       distance
                  ------     ------       --------
  bond distance:  H   _1     O            0.958391
  bond distance:  H   _2     O            0.958391


  Bond angles (degrees):
  ----------------------

                  atom 1     atom 2     atom 3         angle
                  ------     ------     ------         -----
  bond angle:     H   _1     O          H   _2       104.450




 CPU time statistics for ABACUS
 ------------------------------

 EXCITA     00:00:07     100 %

 TOTAL      00:00:07     100 %


  Total CPU  time used in ABACUS:   7.47 seconds
  Total wall time used in ABACUS:   7.48 seconds


                   .-------------------------------------------.
                   | End of Static Property Section (ABACUS) - |
                   `-------------------------------------------'

  Total CPU  time used in DALTON:   7.65 seconds
  Total wall time used in DALTON:   7.65 seconds

 
     Date and time (Linux)  : Tue Jan 10 11:43:20 2017
     Host name              : TESD11                                  
