

     ************************************************************************
     *************** Dalton - An Electronic Structure Program ***************
     ************************************************************************

    This is output from DALTON (Release Dalton2013 patch 0)
   ----------------------------------------------------------------------------
    NOTE:
     
    Dalton is an experimental code for the evaluation of molecular
    properties using (MC)SCF, DFT, CI, and CC wave functions.
    The authors accept no responsibility for the performance of
    the code or for the correctness of the results.
     
    The code (in whole or part) is provided under a licence and
    is not to be reproduced for further distribution without
    the written permission of the authors or their representatives.
     
    See the home page "http://daltonprogram.org" for further information.
     
    If results obtained with this code are published,
    the appropriate citations would be both of:
     
       K. Aidas, C. Angeli, K. L. Bak, V. Bakken, R. Bast,
       L. Boman, O. Christiansen, R. Cimiraglia, S. Coriani,
       P. Dahle, E. K. Dalskov, U. Ekstroem, T. Enevoldsen,
       J. J. Eriksen, P. Ettenhuber, B. Fernandez, L. Ferrighi,
       H. Fliegl, L. Frediani, K. Hald, A. Halkier, C. Haettig,
       H. Heiberg, T. Helgaker, A. C. Hennum, H. Hettema,
       E. Hjertenaes, S. Hoest, I.-M. Hoeyvik, M. F. Iozzi,
       B. Jansik, H. J. Aa. Jensen, D. Jonsson, P. Joergensen,
       J. Kauczor, S. Kirpekar, T. Kjaergaard, W. Klopper,
       S. Knecht, R. Kobayashi, H. Koch, J. Kongsted, A. Krapp,
       K. Kristensen, A. Ligabue, O. B. Lutnaes, J. I. Melo,
       K. V. Mikkelsen, R. H. Myhre, C. Neiss, C. B. Nielsen,
       P. Norman, J. Olsen, J. M. H. Olsen, A. Osted,
       M. J. Packer, F. Pawlowski, T. B. Pedersen, P. F. Provasi,
       S. Reine, Z. Rinkevicius, T. A. Ruden, K. Ruud, V. Rybkin,
       P. Salek, C. C. M. Samson, A. Sanchez de Meras, T. Saue,
       S. P. A. Sauer, B. Schimmelpfennig, K. Sneskov,
       A. H. Steindal, K. O. Sylvester-Hvid, P. R. Taylor,
       A. M. Teale, E. I. Tellgren, D. P. Tew, A. J. Thorvaldsen,
       L. Thoegersen, O. Vahtras, M. A. Watson, D. J. D. Wilson,
       M. Ziolkowski and H. Agren.
       The Dalton quantum chemistry program system.
       WIREs Comput. Mol. Sci. 2013. doi: 10.1002/wcms.1172
    
    and
    
       Dalton, a Molecular Electronic Structure Program,
       Release DALTON2013.0 (2013), see http://daltonprogram.org
   ----------------------------------------------------------------------------

    Authors in alphabetical order (major contribution(s) in parenthesis):

  Kestutis Aidas,           Vilnius University,           Lithuania   (QM/MM)
  Celestino Angeli,         University of Ferrara,        Italy       (NEVPT2)
  Keld L. Bak,              UNI-C,                        Denmark     (AOSOPPA, non-adiabatic coupling, magnetic properties)
  Vebjoern Bakken,          University of Oslo,           Norway      (DALTON; geometry optimizer, symmetry detection)
  Radovan Bast,             KTH Stockholm                 Sweden      (DALTON installation and execution frameworks)
  Linus Boman,              NTNU,                         Norway      (Cholesky decomposition and subsystems)
  Ove Christiansen,         Aarhus University,            Denmark     (CC module)
  Renzo Cimiraglia,         University of Ferrara,        Italy       (NEVPT2)
  Sonia Coriani,            University of Trieste,        Italy       (CC module, MCD in RESPONS)
  Paal Dahle,               University of Oslo,           Norway      (Parallelization)
  Erik K. Dalskov,          UNI-C,                        Denmark     (SOPPA)
  Thomas Enevoldsen,        Univ. of Southern Denmark,    Denmark     (SOPPA)
  Janus J. Eriksen,         Aarhus University,            Denmark     (PE-MP2/SOPPA, TDA)
  Berta Fernandez,          U. of Santiago de Compostela, Spain       (doublet spin, ESR in RESPONS)
  Lara Ferrighi,            Aarhus University,            Denmark     (PCM Cubic response)
  Heike Fliegl,             University of Oslo,           Norway      (CCSD(R12))
  Luca Frediani,            UiT The Arctic U. of Norway,  Norway      (PCM)
  Bin Gao,                  UiT The Arctic U. of Norway,  Norway      (Gen1Int library)
  Christof Haettig,         Ruhr-University Bochum,       Germany     (CC module)
  Kasper Hald,              Aarhus University,            Denmark     (CC module)
  Asger Halkier,            Aarhus University,            Denmark     (CC module)
  Hanne Heiberg,            University of Oslo,           Norway      (geometry analysis, selected one-electron integrals)
  Trygve Helgaker,          University of Oslo,           Norway      (DALTON; ABACUS, ERI, DFT modules, London, and much more)
  Alf Christian Hennum,     University of Oslo,           Norway      (Parity violation)
  Hinne Hettema,            University of Auckland,       New Zealand (quadratic response in RESPONS; SIRIUS supersymmetry)
  Eirik Hjertenaes,         NTNU,                         Norway      (Cholesky decomposition)
  Maria Francesca Iozzi,    University of Oslo,           Norway      (RPA)
  Brano Jansik              Technical Univ. of Ostrava    Czech Rep.  (DFT cubic response)
  Hans Joergen Aa. Jensen,  Univ. of Southern Denmark,    Denmark     (DALTON; SIRIUS, RESPONS, ABACUS modules, London, and much more)
  Dan Jonsson,              UiT The Arctic U. of Norway,  Norway      (cubic response in RESPONS module)
  Poul Joergensen,          Aarhus University,            Denmark     (RESPONS, ABACUS, and CC modules)
  Joanna Kauczor,           Linkoeping University,        Sweden      (Complex polarization propagator (CPP) module)
  Sheela Kirpekar,          Univ. of Southern Denmark,    Denmark     (Mass-velocity & Darwin integrals)
  Wim Klopper,              KIT Karlsruhe,                Germany     (R12 code in CC, SIRIUS, and ABACUS modules)
  Stefan Knecht,            ETH Zurich,                   Switzerland (Parallel CI and MCSCF)
  Rika Kobayashi,           Australian National Univ.,    Australia   (DIIS in CC, London in MCSCF)
  Henrik Koch,              NTNU,                         Norway      (CC module, Cholesky decomposition)
  Jacob Kongsted,           Univ. of Southern Denmark,    Denmark     (Polarizable embedding, QM/MM)
  Andrea Ligabue,           University of Modena,         Italy       (CTOCD, AOSOPPA)
  Ola B. Lutnaes,           University of Oslo,           Norway      (DFT Hessian)
  Juan I. Melo,             University of Buenos Aires,   Argentina   (LRESC, Relativistic Effects on NMR Shieldings)
  Kurt V. Mikkelsen,        University of Copenhagen,     Denmark     (MC-SCRF and QM/MM)
  Rolf H. Myhre,            NTNU,                         Norway      (Cholesky, subsystems and ECC2)
  Christian Neiss,          Univ. Erlangen-Nuernberg,     Germany     (CCSD(R12))
  Christian B. Nielsen,     University of Copenhagen,     Denmark     (QM/MM)
  Patrick Norman,           Linkoeping University,        Sweden      (Cubic response and complex response in RESPONS)
  Jeppe Olsen,              Aarhus University,            Denmark     (SIRIUS CI/density modules)
  Jogvan Magnus H. Olsen,   Univ. of Southern Denmark,    Denmark     (Polarizable embedding, PE library, QM/MM)
  Anders Osted,             Copenhagen University,        Denmark     (QM/MM)
  Martin J. Packer,         University of Sheffield,      UK          (SOPPA)
  Filip Pawlowski,          Kazimierz Wielki University   Poland      (CC3)
  Thomas B. Pedersen,       University of Oslo,           Norway      (Cholesky decomposition)
  Patricio F. Provasi,      University of Northeastern,   Argentina   (Analysis of coupling constants in localized orbitals)
  Zilvinas Rinkevicius,     KTH Stockholm,                Sweden      (open-shell DFT, ESR)
  Elias Rudberg,            KTH Stockholm,                Sweden      (DFT grid and basis info)
  Torgeir A. Ruden,         University of Oslo,           Norway      (Numerical derivatives in ABACUS)
  Kenneth Ruud,             UiT The Arctic U. of Norway,  Norway      (DALTON; ABACUS magnetic properties and  much more)
  Pawel Salek,              KTH Stockholm,                Sweden      (DALTON; DFT code)
  Claire C. M. Samson       University of Karlsruhe       Germany     (Boys localization, r12 integrals in ERI)
  Alfredo Sanchez de Meras, University of Valencia,       Spain       (CC module, Cholesky decomposition)
  Trond Saue,               Paul Sabatier University,     France      (direct Fock matrix construction)
  Stephan P. A. Sauer,      University of Copenhagen,     Denmark     (SOPPA(CCSD), SOPPA prop., AOSOPPA, vibrational g-factors)
  Bernd Schimmelpfennig,    Forschungszentrum Karlsruhe,  Germany     (AMFI module)
  Kristian Sneskov,         Aarhus University,            Denmark     (QM/MM, PE-CC)
  Arnfinn H. Steindal,      UiT The Arctic U. of Norway,  Norway      (parallel QM/MM)
  K. O. Sylvester-Hvid,     University of Copenhagen,     Denmark     (MC-SCRF)
  Peter R. Taylor,          VLSCI/Univ. of Melbourne,     Australia   (Symmetry handling ABACUS, integral transformation)
  Andrew M. Teale,          University of Nottingham,     England     (DFT-AC, DFT-D)
  David P. Tew,             University of Bristol,        England     (CCSD(R12))
  Olav Vahtras,             KTH Stockholm,                Sweden      (triplet response, spin-orbit, ESR, TDDFT, open-shell DFT)
  David J. Wilson,          La Trobe University,          Australia   (DFT Hessian and DFT magnetizabilities)
  Hans Agren,               KTH Stockholm,                Sweden      (SIRIUS module, RESPONS, MC-SCRF solvation model)
 --------------------------------------------------------------------------------

     Date and time (Linux)  : Sun Sep  8 20:44:29 2013
     Host name              : lpqlx131.ups-tlse.fr                    

 * Work memory size             :    64000000 =  488.28 megabytes.

 * Directories for basis set searches:
   1) /home/bast/DALTON-2013.0-Source/build/test_cc_grad3
   2) /home/bast/DALTON-2013.0-Source/build/basis


Compilation information
-----------------------

 Who compiled             | bast
 Host                     | lpqlx131.ups-tlse.fr
 System                   | Linux-3.8.5-201.fc18.x86_64
 CMake generator          | Unix Makefiles
 Processor                | x86_64
 64-bit integers          | OFF
 MPI                      | OFF
 Fortran compiler         | /usr/bin/gfortran
 Fortran compiler version | GNU Fortran (GCC) 4.7.2 20121109 (Red Hat 4.7.2-8)
 C compiler               | /usr/bin/gcc
 C compiler version       | gcc (GCC) 4.7.2 20121109 (Red Hat 4.7.2-8)
 C++ compiler             | /usr/bin/g++
 C++ compiler version     | g++ (GCC) 4.7.2 20121109 (Red Hat 4.7.2-8)
 Static linking           | OFF
 Last Git revision        | f34203295a86316e27f9e7b44f9b6769c4a046c0
 Configuration time       | 2013-09-08 20:31:27.952056


   Content of the .dal input file
 ----------------------------------

**DALTON INPUT                                    
.DIRECT                                           
.RUN WAVE FUNCTIONS                               
**INTEGRAL                                        
.DIPLEN                                           
.DEROVL                                           
.DERHAM                                           
**WAVE FUNCTION                                   
.CC                                               
*SCF INP                                          
.THRESH                                           
 1.0D-10                                          
.DOUBLY OCCUPIED                                  
 7                                                
*CC INP                                           
.CCSD                                             
.PRINT                                            
  2                                               
.THRENR                                           
1.0D-08                                           
.THRLEQ                                           
1.0D-07                                           
.NSYM                                             
1                                                 
.FROIMP                                           
2                                                 
0                                                 
*DERIVATIVES                                      
**END OF DALTON INPUT                             


   Content of the .mol file
 ----------------------------

INTGRL                                                                         
first order property calculation on N2                                         
small test-basis                                                               
    1  0 0  X  Y  Z   0.10D-14                                                 
        7.    2    3    2    1    1                                            
N        0.0000000000000     0.0000000000000     1.0371575000000               
N        0.0000000000000     0.0000000000000    -1.0371575000000               
H   8    2                                                                     
     9046.0000000000        0.0007000000       -0.0001530000                   
     1357.0000000000        0.0053890000       -0.0012080000                   
      309.3000000000        0.0274060000       -0.0059920000                   
       87.7300000000        0.1032070000       -0.0245440000                   
       28.5600000000        0.2787230000       -0.0674590000                   
       10.2100000000        0.4485400000       -0.1580780000                   
        3.8380000000        0.2782380000       -0.1218310000                   
        0.7466000000        0.0154400000        0.5490030000                   
H   2    2                                                                     
        0.2248000000        1.0000000000        0.0000000000                   
        0.0612400000        0.0000000000        1.0000000000                   
H   5    3                                                                     
       13.5500000000        0.0399190000        0.0000000000        0.000000000
        2.9170000000        0.2171690000        0.0000000000        0.000000000
        0.7973000000        0.5103190000        0.0000000000        0.000000000
        0.2185000000        0.0000000000        1.0000000000        0.000000000
        0.0561100000        0.0000000000        0.0000000000        1.000000000
H   2    2                                                                     
        0.8170000000        1.0000000000        0.0000000000                   
        0.2300000000        0.0000000000        1.0000000000                   


       *******************************************************************
       *********** Output from DALTON general input processing ***********
       *******************************************************************

 --------------------------------------------------------------------------------
   Overall default print level:    0
   Print level for DALTON.STAT:    1

    AO-direct calculation (in sections where implemented)
    HERMIT 1- and 2-electron integral sections will be executed
    "Old" integral transformation used (limited to max 255 basis functions)
    Wave function sections will be executed (SIRIUS module)
 --------------------------------------------------------------------------------


   ****************************************************************************
   *************** Output of molecule and basis set information ***************
   ****************************************************************************


    The two title cards from your ".mol" input:
    ------------------------------------------------------------------------
 1: first order property calculation on N2                                  
 2: small test-basis                                                        
    ------------------------------------------------------------------------

  Atomic type no.    1
  --------------------
  Nuclear charge:   7.00000
  Number of symmetry independent centers:    2
  Number of basis sets to read;    2


                         SYMGRP: Point group information
                         -------------------------------

Point group: C1 


                                 Isotopic Masses
                                 ---------------

                           N          14.003074
                           N          14.003074

                       Total mass:    28.006148 amu
                       Natural abundance:  99.261 %

 Center-of-mass coordinates (a.u.):    0.000000    0.000000    0.000000


  Atoms and basis sets
  --------------------

  Number of atom types :    1
  Total number of atoms:    2

  label    atoms   charge   prim   cont     basis
  ----------------------------------------------------------------------
  N           2    7.0000    35    23      [10s5p2d|4s3p2d]                                   
  ----------------------------------------------------------------------
  total:      2   14.0000    70    46
  ----------------------------------------------------------------------
  Spherical harmonic basis used.

  Threshold for neglecting AO integrals:  1.00D-15


  Cartesian Coordinates (a.u.)
  ----------------------------

  Total number of coordinates:    6
  N       :     1  x   0.0000000000    2  y   0.0000000000    3  z   1.0371575000
  N       :     4  x   0.0000000000    5  y   0.0000000000    6  z  -1.0371575000


   Interatomic separations (in Angstrom):
   --------------------------------------

            N           N     
            ------      ------
 N     :    0.000000
 N     :    1.097680    0.000000


  Max    interatomic separation is    1.0977 Angstrom (    2.0743 Bohr)
  between atoms    2 and    1, "N     " and "N     ".

  Min YX interatomic separation is    1.0977 Angstrom (    2.0743 Bohr)


  Bond distances (Angstrom):
  --------------------------

                  atom 1     atom 2       distance
                  ------     ------       --------
  bond distance:  N          N            1.097680




 Principal moments of inertia (u*A**2) and principal axes
 --------------------------------------------------------

   IA       0.000000          0.000000    0.000000    1.000000
   IB       8.436165          0.000000    1.000000    0.000000
   IC       8.436165          1.000000    0.000000    0.000000


 Rotational constants
 --------------------

 The molecule is linear.

               B =        59906.25 MHz     (    1.998257 cm-1)


@  Nuclear repulsion energy :   23.622256021867 Hartree


                     .---------------------------------------.
                     | Starting in Integral Section (HERMIT) |
                     `---------------------------------------'



    *************************************************************************
    ****************** Output from HERMIT input processing ******************
    *************************************************************************


 Default print level:        1

 * Nuclear model: Point charge

 Calculation of one-electron Hamiltonian integrals.

 The following one-electron property integrals are calculated as requested:
          - overlap integrals
          - dipole length integrals
          - Geometrical derivatives of overlap integrals
          - Geometrical derivatives of one-electron Hamiltonian integrals

 Center of mass  (bohr):      0.000000000000      0.000000000000      0.000000000000
 Operator center (bohr):      0.000000000000      0.000000000000      0.000000000000
 Gauge origin    (bohr):      0.000000000000      0.000000000000      0.000000000000
 Dipole origin   (bohr):      0.000000000000      0.000000000000      0.000000000000


     ************************************************************************
     ************************** Output from HERINT **************************
     ************************************************************************

 >>>> Total CPU  time used in HERMIT:   0.03 seconds
 >>>> Total wall time used in HERMIT:   0.03 seconds


                        .----------------------------------.
                        | End of Integral Section (HERMIT) |
                        `----------------------------------'



                   .--------------------------------------------.
                   | Starting in Wave Function Section (SIRIUS) |
                   `--------------------------------------------'


 *** Output from Huckel module :

     Using EWMO model:          T
     Using EHT  model:          F
     Number of Huckel orbitals each symmetry:   10

 EWMO - Energy Weighted Maximum Overlap - is a Huckel type method,
        which normally is better than Extended Huckel Theory.
 Reference: Linderberg and Ohrn, Propagators in Quantum Chemistry (Wiley, 1973)

 Huckel EWMO eigenvalues for symmetry :  1
          -15.679804     -15.669996      -1.521198      -0.805117      -0.695188
           -0.695188      -0.478022      -0.322212      -0.322212      -0.123462

 **********************************************************************
 *SIRIUS* a direct, restricted step, second order MCSCF program       *
 **********************************************************************

 
     Date and time (Linux)  : Sun Sep  8 20:44:29 2013
     Host name              : lpqlx131.ups-tlse.fr                    

 Title lines from ".mol" input file:
     first order property calculation on N2                                  
     small test-basis                                                        

 Print level on unit LUPRI =   2 is   0
 Print level on unit LUW4  =   2 is   5

@    (Integral direct) CC calculation.

@    This is a combination run starting with
@              a restricted, closed shell Hartree-Fock calculation

 Fock matrices are calculated directly without use of integrals on disk.

 Initial molecular orbitals are obtained according to
 ".MOSTART EWMO  " input option

     Wave function specification
     ============================

     For the specification of the Coupled Cluster: see later.

@    For the wave function of type :      >>> CC <<<
@    Number of closed shell electrons          14
@    Number of electrons in active shells       0
@    Total charge of the molecule               0

@    Spin multiplicity and 2 M_S                1         0
     Total number of symmetries                 1
@    Reference state symmetry                   1

     Orbital specifications
     ======================
     Abelian symmetry species          All |    1
                                       --- |  ---
@    Occupied SCF orbitals               7 |    7
     Secondary orbitals                 39 |   39
     Total number of orbitals           46 |   46
     Number of basis functions          46 |   46

     Optimization information
     ========================
@    Number of configurations                 1
@    Number of orbital rotations            273
     ------------------------------------------
@    Total number of variables              274

     Maximum number of Fock   iterations      0
     Maximum number of DIIS   iterations     60
     Maximum number of QC-SCF iterations     60
     Threshold for SCF convergence     1.00D-10


 Changes of defaults for CC:
 ---------------------------


 -This is a direct atomic orbital integral based
  calculation for coupled cluster wave function

 -Implicit frozen core calculation
  


 >>>>> DIIS optimization of Hartree-Fock <<<<<

 C1-DIIS algorithm; max error vectors =   10

 Iter      Total energy        Error norm    Delta(E)  DIIS dim.
 -----------------------------------------------------------------------------
   1  Screening settings (-IFTHRS, DIFDEN)   -7    T
@  1    -108.663120730        2.26183D+00   -1.09D+02    1
      Virial theorem: -V/T =      2.013416
@      MULPOP N      -0.00; N       0.00; 
 -----------------------------------------------------------------------------
   2  Screening settings (-IFTHRS, DIFDEN)   -7    T
@  2    -108.944448656        5.40780D-01   -2.81D-01    2
      Virial theorem: -V/T =      1.996171
@      MULPOP N       0.00; N      -0.00; 
 -----------------------------------------------------------------------------
   3  Screening settings (-IFTHRS, DIFDEN)   -7    T
@  3    -108.959897183        8.97049D-02   -1.54D-02    3
      Virial theorem: -V/T =      2.003157
@      MULPOP N       0.00; N      -0.00; 
 -----------------------------------------------------------------------------
   4  Screening settings (-IFTHRS, DIFDEN)   -9    F
@  4    -108.960623462        1.37015D-02   -7.26D-04    4
      Virial theorem: -V/T =      2.002702
@      MULPOP N       0.00; N      -0.00; 
 -----------------------------------------------------------------------------
   5  Screening settings (-IFTHRS, DIFDEN)   -9    T
@  5    -108.960649077        2.44774D-03   -2.56D-05    5
      Virial theorem: -V/T =      2.002782
@      MULPOP N       0.00; N      -0.00; 
 -----------------------------------------------------------------------------
   6  Screening settings (-IFTHRS, DIFDEN)   -9    T
@  6    -108.960649957        1.98823D-04   -8.80D-07    6
      Virial theorem: -V/T =      2.002779
@      MULPOP N      -0.00; N       0.00; 
 -----------------------------------------------------------------------------
   7  Screening settings (-IFTHRS, DIFDEN)  -12    F
@  7    -108.960649960        2.20136D-05   -3.56D-09    7
      Virial theorem: -V/T =      2.002781
@      MULPOP N       0.00; N      -0.00; 
 -----------------------------------------------------------------------------
   8  Screening settings (-IFTHRS, DIFDEN)  -12    T
@  8    -108.960649961        3.33474D-06   -5.12D-11    8
      Virial theorem: -V/T =      2.002781
@      MULPOP N       0.00; N      -0.00; 
 -----------------------------------------------------------------------------
   9  Screening settings (-IFTHRS, DIFDEN)  -12    T
@  9    -108.960649961        3.25369D-07   -1.11D-12    9
      Virial theorem: -V/T =      2.002781
@      MULPOP N       0.00; N      -0.00; 
 -----------------------------------------------------------------------------
  10  Screening settings (-IFTHRS, DIFDEN)  -16    F
@ 10    -108.960649961        3.60495D-08   -2.84D-13   10
      Virial theorem: -V/T =      2.002781
@      MULPOP N       0.00; N      -0.00; 
 -----------------------------------------------------------------------------
  11  Screening settings (-IFTHRS, DIFDEN)  -16    T
@ 11    -108.960649961        2.03307D-09   -8.53D-14   10
      Virial theorem: -V/T =      2.002781
@      MULPOP N      -0.00; N       0.00; 
 -----------------------------------------------------------------------------
  12  Screening settings (-IFTHRS, DIFDEN)  -16    T
@ 12    -108.960649961        1.85036D-10   -1.14D-13   10
      Virial theorem: -V/T =      2.002781
@      MULPOP N      -0.00; N       0.00; 
 -----------------------------------------------------------------------------
  13  Screening settings (-IFTHRS, DIFDEN)  -16    T
@ 13    -108.960649961        1.52614D-11   -5.68D-14   10

@ *** DIIS converged in  13 iterations !
@     Converged SCF energy, gradient:   -108.960649960516    1.53D-11
    - total time used in SIRFCK :              0.00 seconds


 *** SCF orbital energy analysis ***

 Only the five lowest virtual orbital energies printed in each symmetry.

 Number of electrons :   14
 Orbital occupations :    7

 Sym       Hartree-Fock orbital energies

  1    -15.69844616   -15.69502068    -1.47934999    -0.78116452    -0.63435586
        -0.61544451    -0.61544451     0.10381924     0.12450046     0.12450046
         0.14019209     0.15038032

    E(LUMO) :     0.10381924 au (symmetry 1)
  - E(HOMO) :    -0.61544451 au (symmetry 1)
  ------------------------------------------
    gap     :     0.71926375 au

 >>> Writing SIRIFC interface file <<<

 >>>> CPU and wall time for SCF :       0.899       0.906


                       .-----------------------------------.
                       | >>> Final results from SIRIUS <<< |
                       `-----------------------------------'


@    Spin multiplicity:           1
@    Spatial symmetry:            1
@    Total charge of molecule:    0

@    Final HF energy:            -108.960649960516                 
@    Nuclear repulsion:            23.622256021867
@    Electronic energy:          -132.582905982384

@    Final gradient norm:           0.000000000015

 
     Date and time (Linux)  : Sun Sep  8 20:44:30 2013
     Host name              : lpqlx131.ups-tlse.fr                    

 (Only coefficients >0.0100 are printed.)

 Molecular orbitals for symmetry species  1
 ------------------------------------------

    Orbital         3        4        5        6        7        8        9
   1 N   :1s    -0.0109  -0.0004   0.0032  -0.0000  -0.0000   0.0176  -0.0000
   2 N   :1s     0.3303   0.3211  -0.1091  -0.0000   0.0000  -0.0219  -0.0000
   3 N   :1s     0.2008   0.6080  -0.2810  -0.0000   0.0000  -1.4430  -0.0000
   4 N   :1s    -0.0048   0.1573  -0.0477  -0.0000   0.0000 -13.9637   0.0000
   5 N   :2px    0.0000  -0.0000   0.0000   0.0149   0.4274   0.0000  -0.3052
   6 N   :2py   -0.0000   0.0000  -0.0000   0.4274  -0.0149  -0.0000  -0.0000
   7 N   :2pz   -0.2175   0.2153  -0.4527  -0.0000   0.0000  -0.0233   0.0000
   8 N   :2px    0.0000  -0.0000   0.0000   0.0084   0.2426   0.0000  -0.3687
   9 N   :2py   -0.0000   0.0000  -0.0000   0.2426  -0.0084  -0.0000  -0.0000
  10 N   :2pz   -0.0387  -0.0031  -0.2032  -0.0000   0.0000   0.9136   0.0000
  11 N   :2px    0.0000  -0.0000   0.0000   0.0004   0.0127   0.0000  -1.3780
  12 N   :2py   -0.0000   0.0000  -0.0000   0.0127  -0.0004  -0.0000  -0.0001
  13 N   :2pz    0.0074  -0.0221  -0.0010  -0.0000   0.0000   4.0780  -0.0000
  15 N   :3d1-  -0.0000  -0.0000  -0.0000  -0.0438   0.0015  -0.0000  -0.0000
  16 N   :3d0    0.0287  -0.0113   0.0244   0.0000  -0.0000   0.0068  -0.0000
  17 N   :3d1+   0.0000   0.0000   0.0000  -0.0015  -0.0438   0.0000  -0.0216
  20 N   :3d1-   0.0000   0.0000   0.0000  -0.0166   0.0006   0.0000   0.0000
  21 N   :3d0    0.0025   0.0239   0.0033  -0.0000   0.0000  -0.2334   0.0000
  22 N   :3d1+  -0.0000  -0.0000  -0.0000  -0.0006  -0.0166  -0.0000   0.0422
  24 N   :1s    -0.0109   0.0004   0.0032  -0.0000   0.0000  -0.0176   0.0000
  25 N   :1s     0.3303  -0.3211  -0.1091   0.0000  -0.0000   0.0219   0.0000
  26 N   :1s     0.2008  -0.6080  -0.2810   0.0000  -0.0000   1.4430   0.0000
  27 N   :1s    -0.0048  -0.1573  -0.0477   0.0000  -0.0000  13.9637  -0.0000
  28 N   :2px   -0.0000  -0.0000  -0.0000   0.0149   0.4274  -0.0000   0.3052
  29 N   :2py   -0.0000   0.0000   0.0000   0.4274  -0.0149   0.0000   0.0000
  30 N   :2pz    0.2175   0.2153   0.4527  -0.0000   0.0000  -0.0233   0.0000
  31 N   :2px   -0.0000  -0.0000  -0.0000   0.0084   0.2426  -0.0000   0.3687
  32 N   :2py   -0.0000   0.0000   0.0000   0.2426  -0.0084   0.0000   0.0000
  33 N   :2pz    0.0387  -0.0031   0.2032  -0.0000   0.0000   0.9136   0.0000
  34 N   :2px   -0.0000  -0.0000  -0.0000   0.0004   0.0127  -0.0000   1.3780
  35 N   :2py   -0.0000   0.0000   0.0000   0.0127  -0.0004   0.0000   0.0001
  36 N   :2pz   -0.0074  -0.0221   0.0010   0.0000  -0.0000   4.0780   0.0000
  38 N   :3d1-  -0.0000  -0.0000  -0.0000   0.0438  -0.0015  -0.0000  -0.0000
  39 N   :3d0    0.0287   0.0113   0.0244  -0.0000   0.0000  -0.0068   0.0000
  40 N   :3d1+   0.0000   0.0000   0.0000   0.0015   0.0438   0.0000  -0.0216
  43 N   :3d1-   0.0000   0.0000   0.0000   0.0166  -0.0006   0.0000   0.0000
  44 N   :3d0    0.0025  -0.0239   0.0033   0.0000  -0.0000   0.2334  -0.0000
  45 N   :3d1+  -0.0000  -0.0000  -0.0000   0.0006   0.0166  -0.0000   0.0422



 >>>> Total CPU  time used in SIRIUS :      0.91 seconds
 >>>> Total wall time used in SIRIUS :      0.91 seconds

 
     Date and time (Linux)  : Sun Sep  8 20:44:30 2013
     Host name              : lpqlx131.ups-tlse.fr                    


                     .---------------------------------------.
                     | End of Wave Function Section (SIRIUS) |
                     `---------------------------------------'



                    .------------------------------------------.
                    | Starting in Coupled Cluster Section (CC) |
                    `------------------------------------------'

  

 *******************************************************************************
 *******************************************************************************
 *                                                                             *
 *                                                                             *
 *                    START OF COUPLED CLUSTER CALCULATION                     *
 *                                                                             *
 *                                                                             *
 *******************************************************************************
 *******************************************************************************



 CCR12 ANSATZ =   0

 CCR12 APPROX =   0

   

 *******************************************************************
 *                                                                 *
 *<<<<<<<<<<                                             >>>>>>>>>>*
 *<<<<<<<<<< OUTPUT FROM COUPLED CLUSTER ENERGY PROGRAM  >>>>>>>>>>*
 *<<<<<<<<<<                                             >>>>>>>>>>*
 *                                                                 *
 *******************************************************************


             The Direct Coupled Cluster Energy Program
             -----------------------------------------


          Number of t1 amplitudes                 :       195
          Number of t2 amplitudes                 :     19110
          Total number of amplitudes in ccsd      :     19305

 Iter.  1: Coupled cluster MP2   energy :    -109.2778430425578904
     Conventional correlation energy:    -0.3171930820415412
 Iter.  1: Coupled cluster CCSD  energy :    -109.2663302365753424
     Conventional correlation energy:    -0.3056802760589932
 Iter.  2: Coupled cluster CCSD  energy :    -109.2775902825933230
     Conventional correlation energy:    -0.3169403220769738
 Iter.  3: Coupled cluster CCSD  energy :    -109.2801925134966581
     Conventional correlation energy:    -0.3195425529803089
 Iter.  4: Coupled cluster CCSD  energy :    -109.2803928079989504
     Conventional correlation energy:    -0.3197428474826012
 Iter.  5: Coupled cluster CCSD  energy :    -109.2804547492161049
     Conventional correlation energy:    -0.3198047886997557
 Iter.  6: Coupled cluster CCSD  energy :    -109.2804563069037869
     Conventional correlation energy:    -0.3198063463874377
 Iter.  7: Coupled cluster CCSD  energy :    -109.2804601161723355
     Conventional correlation energy:    -0.3198101556559863
 Iter.  8: Coupled cluster CCSD  energy :    -109.2804603806292221
     Conventional correlation energy:    -0.3198104201128729
 Iter.  9: Coupled cluster CCSD  energy :    -109.2804602900687030
     Conventional correlation energy:    -0.3198103295523538
 Iter. 10: Coupled cluster CCSD  energy :    -109.2804602818785753
     Conventional correlation energy:    -0.3198103213622261

 CCSD  energy converged to within   0.10D-07 is         -109.280460281879
 Final 2-norm of the CC vector function:  1.18377233D-06





             +-------------------------------------------------------+
             ! Final results from the Coupled Cluster energy program !
             +-------------------------------------------------------+



            Total SCF   energy:                  -108.9606499605

            Total MP2   energy:                  -109.2778430426

            Total CCSD  energy:                  -109.2804602819




                   +--------------------------------------------+
                   ! Calculating singlet intermediates for CCLR !
                   +--------------------------------------------+





            E-intermediates calculated 
            Fock-intermediate calculated 
            Gamma-intermediate calculated 
            BF-intermediate calculated 
            C-intermediate calculated 
            D-intermediate calculated 


   

 *******************************************************************
 *                                                                 *
 *<<<<<<<<<<<<< OUTPUT FROM COUPLED CLUSTER RESPONSE  >>>>>>>>>>>>>*
 *                                                                 *
 *******************************************************************



                         +--------------------------------+
                         ! Coupled Cluster model is: CCSD !
                         +--------------------------------+

 RPA: call cceq_str
     Start vector generated from gradient
 RPA: exit cceq_str



 >>>>> COUPLED CLUSTER RESPONSE SOLVER <<<<<

    Iter  #Vectors  time (min)   residual
    --------------------------------------
  
 ROOT:  1 RESIDUAL TOT: 5.25927D-01
      1       1         0.02     0.53E+00
 >>> TIME USED IN THIS MICRO ITERATION        0.96

  
 ROOT:  1 RESIDUAL TOT: 1.31779D-01
      2       1         0.02     0.13E+00
 >>> TIME USED IN THIS MICRO ITERATION        0.96

  
 ROOT:  1 RESIDUAL TOT: 4.09830D-02
      3       1         0.02     0.41E-01
 >>> TIME USED IN THIS MICRO ITERATION        0.96

  
 ROOT:  1 RESIDUAL TOT: 1.13610D-02
      4       1         0.02     0.11E-01
 >>> TIME USED IN THIS MICRO ITERATION        0.96

  
 ROOT:  1 RESIDUAL TOT: 2.61346D-03
      5       1         0.02     0.26E-02
 >>> TIME USED IN THIS MICRO ITERATION        0.96

  
 ROOT:  1 RESIDUAL TOT: 6.01958D-04
      6       1         0.02     0.60E-03
 >>> TIME USED IN THIS MICRO ITERATION        0.96

  
 ROOT:  1 RESIDUAL TOT: 1.57228D-04
      7       1         0.02     0.16E-03
 >>> TIME USED IN THIS MICRO ITERATION        0.96

  
 ROOT:  1 RESIDUAL TOT: 3.63182D-05
      8       1         0.02     0.36E-04
 >>> TIME USED IN THIS MICRO ITERATION        0.96

  
 ROOT:  1 RESIDUAL TOT: 9.26123D-06
      9       1         0.02     0.93E-05
 >>> TIME USED IN THIS MICRO ITERATION        0.96

  
 ROOT:  1 RESIDUAL TOT: 2.51373D-06
     10       1         0.02     0.25E-05
 >>> TIME USED IN THIS MICRO ITERATION        0.96

  
 ROOT:  1 RESIDUAL TOT: 6.65248D-07
     11       1         0.02     0.67E-06
 >>> TIME USED IN THIS MICRO ITERATION        0.96

  
 ROOT:  1 RESIDUAL TOT: 2.01842D-07
     12       1         0.02     0.20E-06
 >>> TIME USED IN THIS MICRO ITERATION        0.96

  
 ROOT:  1 RESIDUAL TOT: 4.37306D-08
 ROOT:  1 HAS CONVERGED. RESIDUAL TOT: 4.37306D-08
     13       1         0.02     0.44E-07
 >>> TIME USED IN THIS MICRO ITERATION        0.96

    --------------------------------------
    converged in 13 iterations
    threshold:    0.10E-06


         Routine          Time (min)
         ---------------------------
         CC_TRDRV            0.21
         CCRED               0.00
         CCNEX               0.00
         ---------------------------
         Total time          0.21


 >>>> Total CPU  time used in CCEQ_SOLV:  12.48 seconds
 >>>> Total wall time used in CCEQ_SOLV:  12.72 seconds


 >>>>>>>>>>>>>>>>>>>>> <<<<<<<<<<<<<<<<<<<<<



 Analysis of CC Response/Cauchy vector:
 --------------------------------------


          CC_PRAM:Overall Contribution of the Different Components
          --------------------------------------------------------



          Single Excitation Contribution :               1.2016 %

          Double Excitation Contribution :              98.7984 %

          ||T1||/||T2||                  :               0.1103

          Norm of Total Amplitude Vector :               0.6096


 +=============================================================================+
 | symmetry|  orbital index  |   Excitation Numbers             |   Amplitude  |
 |  Index  |   a   b   i   j |      NAI      NBJ |     NAIBJ    |              |
 +=============================================================================+
 | 1   1   |   4       3     |       82          |              |   -0.033220  |
 +-----------------------------------------------------------------------------+
 | 1 1 1 1 |   3  25   4   3 |      120      103 |         7243 |   -0.056282  |
 | 1 1 1 1 |   9  25   4   3 |      126      103 |         7978 |    0.057047  |
 | 1 1 1 1 |   2  25   5   3 |      158      103 |        12506 |   -0.056282  |
 | 1 1 1 1 |   8  25   5   3 |      164      103 |        13469 |    0.057047  |
 | 1 1 1 1 |   3   3   4   4 |      120      120 |         7260 |   -0.108119  |
 | 1 1 1 1 |   9   3   4   4 |      126      120 |         7995 |    0.100354  |
 | 1 1 1 1 |   2   3   5   4 |      158      120 |        12523 |   -0.105169  |
 | 1 1 1 1 |   8   3   5   4 |      164      120 |        13486 |    0.097487  |
 | 1 1 1 1 |   9   9   4   4 |      126      126 |         8001 |   -0.094700  |
 | 1 1 1 1 |   2   9   5   4 |      158      126 |        12529 |    0.097487  |
 | 1 1 1 1 |   8   9   5   4 |      164      126 |        13492 |   -0.092507  |
 | 1 1 1 1 |   2   2   5   5 |      158      158 |        12561 |   -0.108119  |
 | 1 1 1 1 |   8   2   5   5 |      164      158 |        13524 |    0.100354  |
 | 1 1 1 1 |   8   8   5   5 |      164      164 |        13530 |   -0.094700  |
 +=============================================================================+


          Norm of Printed Amplitude Vector :             0.3377

          Printed all single excitations greater than 0.027404

          Printed all double excitations greater than 0.049699


                  Constructing right-hand-side for CCSD-kappa-0
                  ---------------------------------------------

 CC_FOP> Norm of RHS vector:   1.0804219381477182E-003


                      Solving for orbital relaxation vector
                      -------------------------------------



  THIS IS OUTPUT FROM THE MCSCF AND SOPPA RESPONSE SOLVER
 ---------------------------------------------------------


 Symmetry of singlet property operator     1
 Number of operators for singlet linear response equations:     1
 Number of response frequencies:     1
 Convergence threshold:     1.00D-07


 >>>>>>>>>> Symmetry of excitation/property operator    1

 Number of operators for linear response equations:     1
 Number of response frequencies:     1


 RSPLLE -- linear response calculation for symmetry  1
 RSPLLE -- operator no.  1 out of  1
 RSPLLE -- frequencies :  0.000000

 *** THE REQUESTED    1 SOLUTION VECTORS CONVERGED

 *** RSPCTL MICROITERATIONS CONVERGED

   Equations converged to residual less than:  0.000000
  
 Norm of zeta-kappa-0:   1.1274366004836972E-004
  

 *******************************************************************
 *                                                                 *
 *<<<<<<<<  OUTPUT FROM COUPLED CLUSTER GRADIENT SECTION  >>>>>>>>>*
 *                                                                 *
 *******************************************************************

  <<<<<<<<<< Output from NUCREP >>>>>>>>>> 


                            Nuclear repulsion gradient
                            --------------------------

 N          0.0000000000            0.0000000000          -11.3879791747
 N          0.0000000000            0.0000000000           11.3879791747





                          One-electron integral gradient
                          ------------------------------

 N          0.0000000000           -0.0000000000           24.6569955171
 N         -0.0000000000            0.0000000000          -24.6569955171





                          Two-electron integral gradient
                          ------------------------------

 N         -0.0000000000            0.0000000000          -12.5650114366
 N          0.0000000000           -0.0000000000           12.5650114366





                          Reorthonormalization gradient
                          -----------------------------

 N          0.0000000000           -0.0000000000           -0.7545014337
 N         -0.0000000000            0.0000000000            0.7545014337





                                Molecular gradient
                                ------------------

 N         -0.0000000000            0.0000000000           -0.0504965280
 N          0.0000000000           -0.0000000000            0.0504965280




                   Molecular gradient norm:  5.10E-03

>>> Total time used in gradient section:        4.64 seconds.
  

 *******************************************************************************
 *******************************************************************************
 *                                                                             *
 *                                                                             *
 *                   SUMMARY OF COUPLED CLUSTER CALCULATION                    *
 *                                                                             *
 *                                                                             *
 *******************************************************************************
 *******************************************************************************

                                                                                
                                                                                
            Total SCF   energy:                  -108.9606499605                
            Total MP2   energy:                  -109.2778430426                
            Total CCSD  energy:                  -109.2804602819                
  

 *******************************************************************************
 *******************************************************************************
 *                                                                             *
 *                                                                             *
 *                      END OF COUPLED CLUSTER CALCULATION                     *
 *                                                                             *
 *                                                                             *
 *******************************************************************************
 *******************************************************************************


 >>>> CPU and wall time for CC :      31.180      32.178

 
     Date and time (Linux)  : Sun Sep  8 20:45:02 2013
     Host name              : lpqlx131.ups-tlse.fr                    


                      .-------------------------------------.
                      | End of Coupled Cluster Section (CC) |
                      `-------------------------------------'

 >>>> Total CPU  time used in DALTON:  32.13 seconds
 >>>> Total wall time used in DALTON:  33.13 seconds

 
     Date and time (Linux)  : Sun Sep  8 20:45:02 2013
     Host name              : lpqlx131.ups-tlse.fr                    
